eigenvalues:
- - -22.518675845572627
  - -10.287913905162938
  - -6.41103908901057
  - -6.406483378241166
  - 3.136014859921213
  - 3.7619631979339356
  - 6.472978068260362
  - 6.473083586956065
  - 9.062685087355131
  - 12.595321116814027
  - 23.072222371946694
  - 23.567701348842586
  - 27.43609078206909
  - 27.441911366585906
  - 36.92642387430633
  - 36.948853672884816
- - -22.494599096587596
  - -10.254820947473762
  - -6.514245791705569
  - -6.458252739748056
  - 3.103746565425051
  - 3.780219120750146
  - 6.475282622760331
  - 6.584695101237121
  - 8.995706190324665
  - 12.376816169792647
  - 22.994650331066
  - 23.58447107255597
  - 27.300964987897235
  - 27.524746738507616
  - 34.391250139781775
  - 36.73130427785692
- - -22.422163607562585
  - -10.155786481618277
  - -6.816029986881054
  - -6.603966708530346
  - 3.0357496201983643
  - 3.831274596149486
  - 6.477233015327301
  - 6.912691278794072
  - 8.801454563221691
  - 11.903954626847076
  - 22.78579173399854
  - 23.66243685846233
  - 26.92235730557999
  - 27.75760325769703
  - 31.065568254162084
  - 36.209767173295695
- - -22.301470724253342
  - -9.99156843614451
  - -7.286456733465274
  - -6.827468390068781
  - 3.0067330926465172
  - 3.902547680900803
  - 6.474856343832177
  - 7.438347563821285
  - 8.501374729567335
  - 11.532868769989241
  - 22.49775222903238
  - 23.842261563958033
  - 26.37396911640536
  - 28.094639621119693
  - 28.772004575193325
  - 35.55379843536754
- - -22.133757133648697
  - -9.76351765383227
  - -7.88766909113535
  - -7.105934742680519
  - 3.08527990844464
  - 3.9677418849336163
  - 6.479533673794332
  - 8.135772040925774
  - 8.136345388996386
  - 11.440658162018009
  - 22.17878672924933
  - 24.105366406751287
  - 25.732745376508618
  - 27.60921575470925
  - 28.48905825951637
  - 34.85830797442911
- - -21.92135882681748
  - -9.47372986151214
  - -8.581391481386646
  - -7.415754263776175
  - 3.284966103504466
  - 3.9784708017285917
  - 6.5095930190449875
  - 7.774812520324698
  - 8.976126794126573
  - 11.580974211180992
  - 21.856831388899806
  - 24.28047137078057
  - 25.059970531859786
  - 27.110511243541467
  - 28.897889171350247
  - 34.154207190056
- - -21.667406745871936
  - -9.333363993896098
  - -9.125308169923802
  - -7.7357634717238595
  - 3.571258732843975
  - 3.8609756555322687
  - 6.576207227839103
  - 7.515957119097517
  - 9.92973754951413
  - 11.846300141015556
  - 21.53639021806316
  - 23.934576335756475
  - 24.39854262428315
  - 26.96149104023208
  - 29.278092302010087
  - 33.44504263210949
- - -21.375950891854384
  - -10.113801904593778
  - -8.722811127800119
  - -8.048587555550155
  - 3.546596965352604
  - 3.892895495503846
  - 6.687398246136997
  - 7.459627103140075
  - 10.965984949616624
  - 12.144781197229037
  - 21.200115455885623
  - 22.772881840455437
  - 23.777056107787423
  - 27.028332729640237
  - 29.582793372428313
  - 32.72938069963606
- - -21.052877536981725
  - -10.895780758835741
  - -8.34071547483956
  - -8.273033883193127
  - 3.03150428050782
  - 4.2033453627979505
  - 6.859698030897179
  - 7.64792352585861
  - 12.051593213094987
  - 12.392380644325875
  - 20.81109915480502
  - 21.245545585448397
  - 23.214423039718426
  - 27.053356495218132
  - 29.762993723330634
  - 32.01365619353075
- - -20.70732562585814
  - -11.653390286192261
  - -8.601936489451633
  - -7.786411965999377
  - 2.378134325443758
  - 4.467703417847754
  - 7.117673316836551
  - 8.065963880104192
  - 12.49633737553841
  - 13.148466730964486
  - 19.952504931539092
  - 20.315238338121095
  - 22.723299765491795
  - 26.87506778195137
  - 29.778442263349003
  - 31.317694995567482
- - -20.353495114493313
  - -12.359553566261612
  - -8.824614474572689
  - -7.279595347630562
  - 1.6654553928162223
  - 4.6669105179605825
  - 7.4776845806600765
  - 8.693535291933866
  - 12.37948237380395
  - 14.20844109513458
  - 19.149708304406982
  - 19.646687508047314
  - 22.312310358932162
  - 26.512753954601738
  - 29.61867452720651
  - 30.672691736558104
- - -20.01321096015032
  - -12.982860824814006
  - -9.003090883182164
  - -6.780077257421524
  - 0.9674526825898693
  - 4.800934699310059
  - 7.932094302644602
  - 9.524266482528542
  - 12.036370841937112
  - 15.17076657118702
  - 18.746464570041383
  - 18.80479943716807
  - 21.987409289360222
  - 26.065924603804817
  - 29.325363475805446
  - 30.11430858750285
- - -19.718811145934485
  - -13.484063309901037
  - -9.13328851512892
  - -6.333452856883044
  - 0.36026794146256447
  - 4.882273983760102
  - 8.444827307291767
  - 10.53943197847651
  - 11.548810703245918
  - 15.958215490920534
  - 17.612685437567766
  - 18.747788543423155
  - 21.75268784527717
  - 25.643383725056392
  - 28.993723752731693
  - 29.67741253967089
- - -19.513003532086827
  - -13.815767277079246
  - -9.212459923791812
  - -6.009416452396331
  - -0.06722855603950982
  - 4.924905425501022
  - 8.9336785552966
  - 11.054028016559425
  - 11.612666450700278
  - 16.413194958147518
  - 16.482953755434785
  - 18.7976940490762
  - 21.610834444560904
  - 25.34130703599128
  - 28.737839977280466
  - 29.395423992145542
- - -19.438128196319955
  - -13.932906709570895
  - -9.239022529427714
  - -5.88827120697509
  - -0.22401808344670193
  - 4.938083607286304
  - 9.176505226831559
  - 10.806114793089076
  - 12.198404796002066
  - 15.771771325248503
  - 16.668374357766
  - 18.82920801204313
  - 21.563383397652295
  - 25.231357792354387
  - 28.642606849720938
  - 29.297278422362275
- - -19.42118193281082
  - -13.913528655014805
  - -9.338133961649355
  - -5.863233461668515
  - -0.2212699364981308
  - 5.072856890156303
  - 9.193148372949073
  - 10.764211404274477
  - 12.181191928903749
  - 15.725444432832427
  - 16.56625015248806
  - 18.813396465659167
  - 21.429851419137712
  - 24.79964646540805
  - 28.965052267351833
  - 29.258769878845268
- - -19.37107929857777
  - -13.85554467786875
  - -9.61980436693309
  - -5.789412373663938
  - -0.21572736846519
  - 5.469856684665213
  - 9.242008698463703
  - 10.72280102919234
  - 12.136993701149374
  - 15.603973613038386
  - 16.27158135874197
  - 18.78037793545772
  - 21.10085995779397
  - 23.78289938897135
  - 27.754289174484082
  - 29.831314247834914
- - -19.291183700777893
  - -13.75974750368811
  - -10.042681042371544
  - -5.6709771708116765
  - -0.2151506686603174
  - 6.089343165730698
  - 9.318684321815045
  - 10.77910756591406
  - 12.0934607299643
  - 15.451712904699653
  - 15.825388436796628
  - 18.707208829919058
  - 20.691511744486995
  - 22.540487856432527
  - 25.49175814469637
  - 31.037607938103356
- - -19.188228772349216
  - -13.628066751295412
  - -10.552790917788572
  - -5.515937807834872
  - -0.23079478660830133
  - 6.858048252104658
  - 9.417511087053246
  - 10.951735438408097
  - 12.107726487616679
  - 15.267410037629018
  - 15.31851653989341
  - 18.53489882728672
  - 20.249516177485617
  - 21.207720504587577
  - 24.017238788986074
  - 32.39014923715131
- - -19.07290763235587
  - -13.464825397971943
  - -11.093059834017101
  - -5.33802750922844
  - -0.2731462158214117
  - 7.6765976327618075
  - 9.541410576329012
  - 11.226428875466569
  - 12.26109638123584
  - 14.623837096905477
  - 15.239111388981868
  - 18.262084665367983
  - 19.75334579578187
  - 19.890060152050047
  - 23.300683292701848
  - 33.71375453783286
- - -18.960952401318725
  - -13.280969874476378
  - -11.602905168341119
  - -5.159785131355373
  - -0.34344445034547366
  - 8.40066646995345
  - 9.72101002382426
  - 11.562578811608303
  - 12.617715000224724
  - 13.951673100901122
  - 15.225429880063256
  - 17.935480721465165
  - 18.819813221046545
  - 19.160459331044386
  - 23.025426564450804
  - 34.828554614649505
- - -18.874006840653912
  - -13.10906976921303
  - -12.002786445559138
  - -5.016389304587808
  - -0.42223447254590535
  - 8.845304508340721
  - 9.990362506353833
  - 11.845268825491264
  - 13.127201698144523
  - 13.405948608051645
  - 15.254952727108417
  - 17.554359348349827
  - 18.24226722603226
  - 18.51563990792853
  - 22.946887047981043
  - 35.55478388771204
- - -18.838781501683243
  - -13.033016695856634
  - -12.164077048346147
  - -4.95657178057097
  - -0.46260610673533464
  - 8.97165538834061
  - 10.15900040984341
  - 11.92555536661388
  - 13.213744908416436
  - 13.446937948593346
  - 15.255743732365845
  - 17.348247189171257
  - 18.103590996663225
  - 18.170548680055628
  - 22.93531894983886
  - 35.790534489504985
- - -18.876949094993762
  - -13.06927166331459
  - -12.042551129508379
  - -5.022505006137384
  - -0.4086807187717681
  - 8.869376209959203
  - 9.998764564087526
  - 11.886626603861545
  - 13.015212428083348
  - 13.345934867813835
  - 15.362446562625063
  - 17.53405114505569
  - 18.209412880171143
  - 18.519314542825075
  - 22.94224293057264
  - 35.62796434461592
- - -18.999212568920427
  - -13.074084946879585
  - -11.770551085543849
  - -5.2305105022181575
  - -0.22395025973553773
  - 8.542238122220082
  - 9.686332219343791
  - 11.695570800122741
  - 11.992218430347945
  - 13.737115109741604
  - 15.69547160279034
  - 17.900302961775743
  - 18.590295668720316
  - 19.31156303683809
  - 22.991982030222555
  - 35.24892611221378
- - -19.205578474642106
  - -12.965512295808091
  - -11.426784346148981
  - -5.569291100794065
  - 0.10004269551373378
  - 8.011588356154554
  - 9.391064888471867
  - 10.886944207549021
  - 11.364662495316015
  - 14.316330667007646
  - 16.16496915726992
  - 18.21532515070014
  - 19.222037124235612
  - 20.177882356161106
  - 23.188418484752976
  - 34.77729352305439
- - -19.4815761112568
  - -12.730102617857801
  - -11.038792009883938
  - -6.003129036716388
  - 0.5439045381608426
  - 7.380048331453755
  - 9.091928823147885
  - 9.92036850738975
  - 11.008364242624399
  - 14.935613365923706
  - 16.743471392300922
  - 18.53318743914081
  - 19.86675179742996
  - 20.942995376933254
  - 23.693300100315444
  - 34.26832476734511
- - -19.805000518727372
  - -12.380683783948983
  - -10.618360144104516
  - -6.491764283523109
  - 1.0764442687587152
  - 6.725611633388323
  - 8.750465885052487
  - 9.132535654378117
  - 10.693640103094886
  - 15.377521088057163
  - 17.419143543946387
  - 18.975540981206457
  - 20.503007881061446
  - 21.56233349592844
  - 24.59329742035124
  - 33.73220436621569
- - -20.15329360033733
  - -11.937383443189244
  - -10.173196436588356
  - -7.001832312997983
  - 1.6639207443393846
  - 6.085005825297321
  - 8.371434430029424
  - 8.504409000032144
  - 10.429816710857587
  - 15.395718405326848
  - 18.169876771738636
  - 19.678883839063975
  - 21.332255379100133
  - 22.049523558870227
  - 25.853218585445827
  - 33.16033647950734
- - -20.507526877076245
  - -11.420267001049536
  - -9.710422099466571
  - -7.5089248862542615
  - 2.270313331929311
  - 5.474897936778873
  - 7.9832152529782565
  - 8.01352250461414
  - 10.194806091037801
  - 14.97113308864015
  - 18.960431606495575
  - 20.591667486262573
  - 22.445028207027008
  - 22.475988841204675
  - 27.461828895968274
  - 32.54219581144518
- - -20.85326002219456
  - -10.847228010694511
  - -9.237878456973995
  - -7.995919836939688
  - 2.853055716415523
  - 4.903845073825841
  - 7.614644041828554
  - 7.654595486083234
  - 9.958465798885545
  - 14.276651583813821
  - 19.742951962242305
  - 21.611732466750727
  - 22.806784655422547
  - 23.711443503292806
  - 29.393861744555206
  - 31.876130441041393
- - -21.179918079669523
  - -10.234116548244046
  - -8.764728532665863
  - -8.450859032670463
  - 3.358885891470189
  - 4.3786812206314885
  - 7.286253649607307
  - 7.444292926777039
  - 9.690591036424147
  - 13.477142988821061
  - 20.459344031605493
  - 22.717164444467066
  - 23.205720164438222
  - 24.68758738599355
  - 31.174417599557696
  - 31.21720636679508
- - -21.479818324990084
  - -9.596023261072943
  - -8.865304374029831
  - -8.301730487137933
  - 3.729879843300856
  - 3.9094546849270095
  - 7.010390495749753
  - 7.411516431511936
  - 9.360733263871401
  - 12.697632107646209
  - 21.057311832383153
  - 23.707202895343155
  - 23.762598505997563
  - 25.337819517047816
  - 30.46182386004479
  - 32.39007420386824
- - -21.747370135052467
  - -9.233219778341272
  - -8.94943754593799
  - -7.861206419774403
  - 3.513687569430943
  - 3.9330539895970396
  - 6.793463874441406
  - 7.564171858462244
  - 8.942052363038618
  - 12.042848396006645
  - 21.52584984291344
  - 24.33085737482198
  - 24.33690145206149
  - 25.93580193597082
  - 29.769546202910046
  - 33.30305258043475
- - -21.978622994656966
  - -9.550239394420961
  - -8.314769078407366
  - -7.456548978991479
  - 3.217364597243121
  - 3.9901503105622713
  - 6.638057628388989
  - 7.857139456075689
  - 8.429833309438168
  - 11.599742873400501
  - 21.903267603570043
  - 24.318944676067403
  - 25.035763351552056
  - 26.64527969308071
  - 29.128344522679555
  - 34.33408177898309
- - -22.170949184971654
  - -9.813191172011344
  - -7.718357128513294
  - -7.101269529942812
  - 3.045224488223028
  - 3.9585602106775584
  - 6.54280112279767
  - 7.863246949735666
  - 8.210746451604008
  - 11.42806194201374
  - 22.235574314988575
  - 24.064351848643337
  - 25.75388357973783
  - 27.528065894359166
  - 28.56402843053104
  - 35.29852407067217
- - -22.322440086348145
  - -10.019784945778188
  - -7.192892681227489
  - -6.808139308649458
  - 2.9988276451045643
  - 3.8917922293548806
  - 6.49762765494638
  - 7.31615156139531
  - 8.551062141420159
  - 11.557852192642404
  - 22.5424841957738
  - 23.811784133065032
  - 26.41617791309825
  - 28.09658730870208
  - 28.959767948816133
  - 35.79073324906782
- - -22.431445654444385
  - -10.168407266095135
  - -6.775825629275893
  - -6.588714858173547
  - 3.0410882269848676
  - 3.825096927036649
  - 6.48166328099975
  - 6.866250160162112
  - 8.825707565145269
  - 11.948105676504992
  - 22.810755440664703
  - 23.650759060961402
  - 26.956093002641566
  - 27.742636700290074
  - 31.349791258802995
  - 36.28459568444748
- - -22.496906990063994
  - -10.257987496337059
  - -6.505166400049419
  - -6.45263435202825
  - 3.1066148091364303
  - 3.7784976640856165
  - 6.47538071969896
  - 6.573857645931447
  - 9.002073172937063
  - 12.396100796307804
  - 23.001906830187064
  - 23.582499936796122
  - 27.31166259384718
  - 27.518969747711086
  - 34.55810280629087
  - 36.7479940446549
- - -22.518675845572627
  - -10.287913905162938
  - -6.41103908901057
  - -6.406483378241166
  - 3.136014859921213
  - 3.7619631979339356
  - 6.472978068260362
  - 6.473083586956065
  - 9.062685087355131
  - 12.595321116814027
  - 23.072222371946694
  - 23.567701348842586
  - 27.43609078206909
  - 27.441911366585906
  - 36.92642387430633
  - 36.948853672884816
klist:
- - 0.0
  - 0.0
  - 0.0
- - 0.03571428571428571
  - 0.0
  - 0.0
- - 0.07142857142857142
  - 0.0
  - 0.0
- - 0.10714285714285714
  - 0.0
  - 0.0
- - 0.14285714285714285
  - 0.0
  - 0.0
- - 0.17857142857142855
  - 0.0
  - 0.0
- - 0.21428571428571427
  - 0.0
  - 0.0
- - 0.25
  - 0.0
  - 0.0
- - 0.2857142857142857
  - 0.0
  - 0.0
- - 0.3214285714285714
  - 0.0
  - 0.0
- - 0.3571428571428571
  - 0.0
  - 0.0
- - 0.39285714285714285
  - 0.0
  - 0.0
- - 0.42857142857142855
  - 0.0
  - 0.0
- - 0.46428571428571425
  - 0.0
  - 0.0
- - 0.5
  - 0.0
  - 0.0
- - 0.4791666666666667
  - 0.041666666666666664
  - 0.0
- - 0.4583333333333333
  - 0.08333333333333333
  - 0.0
- - 0.4375
  - 0.125
  - 0.0
- - 0.41666666666666663
  - 0.16666666666666666
  - 0.0
- - 0.3958333333333333
  - 0.20833333333333331
  - 0.0
- - 0.375
  - 0.25
  - 0.0
- - 0.35416666666666663
  - 0.29166666666666663
  - 0.0
- - 0.3333333333333333
  - 0.3333333333333333
  - 0.0
- - 0.3137254901960784
  - 0.3137254901960784
  - 0.0
- - 0.2941176470588235
  - 0.2941176470588235
  - 0.0
- - 0.2745098039215686
  - 0.2745098039215686
  - 0.0
- - 0.2549019607843137
  - 0.2549019607843137
  - 0.0
- - 0.23529411764705882
  - 0.23529411764705882
  - 0.0
- - 0.21568627450980393
  - 0.21568627450980393
  - 0.0
- - 0.19607843137254902
  - 0.19607843137254902
  - 0.0
- - 0.1764705882352941
  - 0.1764705882352941
  - 0.0
- - 0.1568627450980392
  - 0.1568627450980392
  - 0.0
- - 0.1372549019607843
  - 0.1372549019607843
  - 0.0
- - 0.11764705882352938
  - 0.11764705882352938
  - 0.0
- - 0.09803921568627452
  - 0.09803921568627452
  - 0.0
- - 0.0784313725490196
  - 0.0784313725490196
  - 0.0
- - 0.05882352941176472
  - 0.05882352941176472
  - 0.0
- - 0.03921568627450983
  - 0.03921568627450983
  - 0.0
- - 0.019607843137254888
  - 0.019607843137254888
  - 0.0
- - 0.0
  - 0.0
  - 0.0
label_xcoords:
- 0.0
- 1.4487215667242797
- 2.285141353253359
- 3.9579809263115173
labels:
- G
- M
- K
- G
xcoords:
- 0.0
- 0.10348011190887711
- 0.20696022381775422
- 0.3104403357266313
- 0.41392044763550845
- 0.5174005595443856
- 0.6208806714532626
- 0.7243607833621398
- 0.8278408952710169
- 0.931321007179894
- 1.0348011190887711
- 1.1382812309976482
- 1.2417613429065253
- 1.3452414548154024
- 1.4487215667242797
- 1.5532740400404146
- 1.6578265133565495
- 1.7623789866726844
- 1.8669314599888192
- 1.971483933304954
- 2.076036406621089
- 2.1805888799372237
- 2.285141353253359
- 2.3835436810803095
- 2.48194600890726
- 2.58034833673421
- 2.6787506645611607
- 2.7771529923881113
- 2.875555320215062
- 2.9739576480420125
- 3.072359975868963
- 3.170762303695913
- 3.2691646315228637
- 3.3675669593498143
- 3.465969287176765
- 3.564371615003715
- 3.6627739428306656
- 3.761176270657616
- 3.8595785984845667
- 3.9579809263115173
