 written on 20Oct2023 at 14:31:29 
           8
         857
    3    2    2    2    1    2    3    2    2    3    3    2    2    2    1
    2    2    1    1    2    2    1    1    1    2    2    1    1    1    1
    2    2    1    1    1    1    1    2    3    2    2    2    2    2    2
    3    3    1    3    2    1    1    2    2    1    1    1    2    2    1
    1    1    1    2    2    1    1    1    1    1    2    2    1    1    1
    1    1    1    2    2    1    1    1    1    1    1    1    2    3    1
    1    1    1    1    1    1    1    3    1    1    1    1    1    1    1
    1    1    3    2    2    2    2    2    2    3    3    2    1    1    2
    3    1    1    1    1    1    3    2    1    1    1    1    1    1    2
    2    1    1    1    1    1    1    1    2    3    1    1    1    1    1
    1    1    1    3    1    1    1    1    1    1    1    1    1    2    1
    1    1    1    1    1    1    1    2    1    1    1    1    1    1    1
    1    1    3    1    1    1    1    1    1    1    1    3    2    1    1
    1    1    1    2    3    2    2    3    2    2    2    1    1    1    2
    2    1    1    1    1    1    1    2    1    1    1    1    1    1    1
    1    1    2    1    1    1    1    1    1    1    1    2    1    1    1
    1    1    1    1    1    1    2    1    1    1    1    1    1    1    1
    2    1    1    1    1    1    1    1    1    1    2    1    1    1    1
    1    1    1    1    2    2    1    1    1    1    1    1    1    2    2
    1    1    1    1    2    2    1    2    2    1    2    2    1    1    1
    1    2    2    1    1    1    1    1    1    1    2    2    1    1    1
    1    1    1    1    1    2    1    1    1    1    1    1    1    1    1
    2    1    1    1    1    1    1    1    1    2    1    1    1    1    1
    1    1    1    1    2    1    1    1    1    1    1    1    1    2    1
    1    1    1    1    1    1    1    1    2    1    1    1    1    1    1
    2    2    1    1    1    2    2    2    3    2    1    1    2    2    1
    1    1    1    1    2    3    1    1    1    1    1    1    1    1    3
    1    1    1    1    1    1    1    1    1    2    1    1    1    1    1
    1    1    1    2    1    1    1    1    1    1    1    1    1    2    1
    1    1    1    1    1    1    1    2    1    1    1    1    1    1    1
    1    1    3    1    1    1    1    1    1    1    1    3    2    1    1
    1    1    1    2    2    1    1    2    3    2    2    2    1    1    1
    2    2    1    1    1    1    1    1    2    1    1    1    1    1    1
    1    1    1    2    1    1    1    1    1    1    1    1    2    1    1
    1    1    1    1    1    1    1    2    1    1    1    1    1    1    1
    1    2    1    1    1    1    1    1    1    1    1    2    1    1    1
    1    1    1    1    1    2    2    1    1    1    1    1    1    1    2
    2    1    1    1    1    2    2    1    2    2    1    2    2    1    1
    1    1    2    2    1    1    1    1    1    1    1    2    2    1    1
    1    1    1    1    1    1    2    1    1    1    1    1    1    1    1
    1    2    1    1    1    1    1    1    1    1    2    1    1    1    1
    1    1    1    1    1    2    1    1    1    1    1    1    1    1    2
    1    1    1    1    1    1    1    1    1    2    1    1    1    1    1
    1    2    2    1    1    1    2    2    2    3    2    2    3    2    1
    1    1    1    1    2    3    1    1    1    1    1    1    1    1    3
    1    1    1    1    1    1    1    1    1    2    1    1    1    1    1
    1    1    1    2    1    1    1    1    1    1    1    1    1    3    1
    1    1    1    1    1    1    1    3    2    1    1    1    1    1    1
    1    2    2    1    1    1    1    1    1    2    3    1    1    1    1
    1    3    2    1    1    2    3    3    2    2    2    2    2    2    3
    1    1    1    1    1    1    1    1    1    3    1    1    1    1    1
    1    1    1    3    2    1    1    1    1    1    1    1    2    2    1
    1    1    1    1    1    2    2    1    1    1    1    1    2    2    1
    1    1    1    2    2    1    1    1    2    2    1    1    2    3    1
    3    3    2    2    2    2    2    2    3    2    1    1    1    1    1
    2    2    1    1    1    1    2    2    1    1    1    2    2    1    1
    2    2    1    2    2    2    3    3    2    2    3    2    1    2    2
    2    3
   -6    0    3    1    1   -0.000235   -0.000002
   -6    0    3    2    1    0.000830    0.000003
   -6    0    3    3    1    0.000834    0.000003
   -6    0    3    4    1   -0.000828   -0.000004
   -6    0    3    5    1    0.001661    0.000003
   -6    0    3    6    1    0.000203   -0.000004
   -6    0    3    7    1    0.000198   -0.000006
   -6    0    3    8    1    0.000108    0.000000
   -6    0    3    1    2    0.000449   -0.000000
   -6    0    3    2    2    0.000305   -0.000007
   -6    0    3    3    2    0.000604   -0.000004
   -6    0    3    4    2   -0.000606    0.000007
   -6    0    3    5    2   -0.000201   -0.000000
   -6    0    3    6    2    0.000286    0.000011
   -6    0    3    7    2   -0.002566    0.000006
   -6    0    3    8    2    0.000150   -0.000010
   -6    0    3    1    3    0.000442   -0.000001
   -6    0    3    2    3    0.000605   -0.000009
   -6    0    3    3    3    0.000326    0.000000
   -6    0    3    4    3   -0.000601    0.000010
   -6    0    3    5    3   -0.000197    0.000001
   -6    0    3    6    3   -0.002564   -0.000008
   -6    0    3    7    3    0.000302    0.000013
   -6    0    3    8    3    0.000167    0.000003
   -6    0    3    1    4   -0.000444   -0.000000
   -6    0    3    2    4   -0.000600    0.000007
   -6    0    3    3    4   -0.000603    0.000005
   -6    0    3    4    4    0.000344   -0.000006
   -6    0    3    5    4   -0.000111   -0.000001
   -6    0    3    6    4    0.000185   -0.000006
   -6    0    3    7    4    0.000161   -0.000018
   -6    0    3    8    4    0.000589    0.000022
   -6    0    3    1    5    0.000029    0.000001
   -6    0    3    2    5    0.000236   -0.000001
   -6    0    3    3    5    0.000233   -0.000005
   -6    0    3    4    5    0.000115   -0.000003
   -6    0    3    5    5   -0.000241   -0.000001
   -6    0    3    6    5   -0.000447   -0.000004
   -6    0    3    7    5   -0.000443   -0.000007
   -6    0    3    8    5    0.000448    0.000003
   -6    0    3    1    6   -0.000235    0.000003
   -6    0    3    2    6   -0.000039   -0.000011
   -6    0    3    3    6   -0.000635    0.000020
   -6    0    3    4    6    0.000280    0.000001
   -6    0    3    5    6   -0.000826   -0.000002
   -6    0    3    6    6    0.000339    0.000005
   -6    0    3    7    6    0.000601    0.000008
   -6    0    3    8    6   -0.000602    0.000006
   -6    0    3    1    7   -0.000231   -0.000000
   -6    0    3    2    7   -0.000636   -0.000009
   -6    0    3    3    7   -0.000044   -0.000011
   -6    0    3    4    7    0.000265    0.000004
   -6    0    3    5    7   -0.000832   -0.000001
   -6    0    3    6    7    0.000603   -0.000019
   -6    0    3    7    7    0.000324   -0.000019
   -6    0    3    8    7   -0.000604    0.000018
   -6    0    3    1    8   -0.000112    0.000001
   -6    0    3    2    8    0.000242    0.000000
   -6    0    3    3    8    0.000266    0.000000
   -6    0    3    4    8    0.000521   -0.000013
   -6    0    3    5    8    0.000830    0.000001
   -6    0    3    6    8   -0.000604    0.000007
   -6    0    3    7    8   -0.000605   -0.000009
   -6    0    3    8    8    0.000308    0.000004
   -6    1    2    1    1   -0.000802   -0.000000
   -6    1    2    2    1    0.000434   -0.000003
   -6    1    2    3    1   -0.000534    0.000005
   -6    1    2    4    1   -0.000432    0.000004
   -6    1    2    5    1   -0.000033   -0.000003
   -6    1    2    6    1   -0.000466    0.000002
   -6    1    2    7    1    0.001188    0.000008
   -6    1    2    8    1   -0.001185   -0.000004
   -6    1    2    1    2   -0.001179    0.000001
   -6    1    2    2    2    0.000096    0.000016
   -6    1    2    3    2    0.000205    0.000011
   -6    1    2    4    2    0.000141   -0.000002
   -6    1    2    5    2    0.000467    0.000005
   -6    1    2    6    2    0.000196    0.000015
   -6    1    2    7    2    0.000645    0.000020
   -6    1    2    8    2   -0.000671   -0.000010
   -6    1    2    1    3    0.000423    0.000004
   -6    1    2    2    3    0.000798    0.000020
   -6    1    2    3    3    0.001109   -0.000037
   -6    1    2    4    3   -0.000799   -0.000023
   -6    1    2    5    3   -0.001187   -0.000005
   -6    1    2    6    3    0.000642    0.000001
   -6    1    2    7    3   -0.001713   -0.000018
   -6    1    2    8    3    0.001234   -0.000019
   -6    1    2    1    4    0.001175    0.000003
   -6    1    2    2    4    0.000142   -0.000002
   -6    1    2    3    4   -0.000202   -0.000013
   -6    1    2    4    4    0.000144    0.000014
   -6    1    2    5    4    0.001180    0.000002
   -6    1    2    6    4   -0.000626   -0.000010
   -6    1    2    7    4    0.001230    0.000022
   -6    1    2    8    4   -0.001712   -0.000007
   -6    1    2    1    5   -0.001167   -0.000003
   -6    1    2    2    5   -0.000536    0.000004
   -6    1    2    3    5    0.000569    0.000004
   -6    1    2    4    5   -0.000376    0.000004
   -6    1    2    5    5   -0.000800    0.000001
   -6    1    2    6    5    0.001183    0.000001
   -6    1    2    7    5   -0.000421    0.000014
   -6    1    2    8    5   -0.001173    0.000003
   -6    1    2    1    6    0.000540    0.000004
   -6    1    2    2    6   -0.000006    0.000018
   -6    1    2    3    6    0.000300   -0.000023
   -6    1    2    4    6    0.001391   -0.000001
   -6    1    2    5    6   -0.000434   -0.000001
   -6    1    2    6    6    0.000136   -0.000021
   -6    1    2    7    6    0.000795    0.000009
   -6    1    2    8    6    0.000139    0.000004
   -6    1    2    1    7   -0.000571    0.000001
   -6    1    2    2    7    0.000301    0.000017
   -6    1    2    3    7    0.001400   -0.000004
   -6    1    2    4    7   -0.000918    0.000003
   -6    1    2    5    7    0.000534    0.000002
   -6    1    2    6    7    0.000208    0.000024
   -6    1    2    7    7    0.001115    0.000039
   -6    1    2    8    7   -0.000206   -0.000022
   -6    1    2    1    8    0.000379    0.000000
   -6    1    2    2    8    0.001343    0.000016
   -6    1    2    3    8   -0.000923   -0.000022
   -6    1    2    4    8   -0.000095   -0.000011
   -6    1    2    5    8    0.000432    0.000002
   -6    1    2    6    8    0.000139    0.000004
   -6    1    2    7    8   -0.000801   -0.000006
   -6    1    2    8    8    0.000101   -0.000019
   -6    1    3    1    1   -0.000801   -0.000003
   -6    1    3    2    1    0.000433   -0.000003
   -6    1    3    3    1    0.000428   -0.000002
   -6    1    3    4    1    0.000542    0.000006
   -6    1    3    5    1   -0.001392   -0.000003
   -6    1    3    6    1   -0.000007   -0.000001
   -6    1    3    7    1    0.000006    0.000006
   -6    1    3    8    1    0.000868    0.000000
   -6    1    3    1    2   -0.001179    0.000003
   -6    1    3    2    2    0.000130   -0.000001
   -6    1    3    3    2   -0.000153    0.000002
   -6    1    3    4    2   -0.000202   -0.000013
   -6    1    3    5    2    0.000007   -0.000003
   -6    1    3    6    2    0.002688   -0.000005
   -6    1    3    7    2   -0.000064    0.000001
   -6    1    3    8    2   -0.000006    0.000003
   -6    1    3    1    3   -0.001177    0.000005
   -6    1    3    2    3   -0.000131   -0.000005
   -6    1    3    3    3    0.000119   -0.000019
   -6    1    3    4    3   -0.000197   -0.000017
   -6    1    3    5    3   -0.000007    0.000001
   -6    1    3    6    3   -0.000064   -0.000022
   -6    1    3    7    3    0.002689    0.000005
   -6    1    3    8    3    0.000004   -0.000019
   -6    1    3    1    4   -0.000432    0.000008
   -6    1    3    2    4   -0.000801   -0.000015
   -6    1    3    3    4   -0.000805   -0.000016
   -6    1    3    4    4    0.001099    0.000024
   -6    1    3    5    4   -0.000859    0.000004
   -6    1    3    6    4   -0.000006   -0.000000
   -6    1    3    7    4    0.000004    0.000022
   -6    1    3    8    4   -0.002655   -0.000034
   -6    1    3    1    5   -0.002246    0.000004
   -6    1    3    2    5   -0.000440   -0.000010
   -6    1    3    3    5   -0.000430   -0.000000
   -6    1    3    4    5    0.000435    0.000009
   -6    1    3    5    5   -0.000799    0.000003
   -6    1    3    6    5    0.001178    0.000001
   -6    1    3    7    5    0.001181    0.000001
   -6    1    3    8    5    0.000426   -0.000003
   -6    1    3    1    6    0.000439   -0.000002
   -6    1    3    2    6   -0.001120   -0.000020
   -6    1    3    3    6    0.000374    0.000018
   -6    1    3    4    6   -0.000385   -0.000000
   -6    1    3    5    6   -0.000428   -0.000002
   -6    1    3    6    6    0.000112    0.000001
   -6    1    3    7    6   -0.000126    0.000018
   -6    1    3    8    6   -0.000818   -0.000017
   -6    1    3    1    7    0.000431    0.000011
   -6    1    3    2    7    0.000371   -0.000015
   -6    1    3    3    7   -0.001121   -0.000040
   -6    1    3    4    7   -0.000372    0.000013
   -6    1    3    5    7   -0.000428   -0.000000
   -6    1    3    6    7   -0.000149   -0.000021
   -6    1    3    7    7    0.000119    0.000010
   -6    1    3    8    7   -0.000809   -0.000026
   -6    1    3    1    8   -0.000438    0.000001
   -6    1    3    2    8   -0.000352   -0.000003
   -6    1    3    3    8   -0.000373   -0.000016
   -6    1    3    4    8   -0.001108   -0.000020
   -6    1    3    5    8   -0.000543   -0.000004
   -6    1    3    6    8   -0.000189   -0.000019
   -6    1    3    7    8   -0.000201   -0.000005
   -6    1    3    8    8    0.001122   -0.000013
   -6    2    1    1    1   -0.000802   -0.000003
   -6    2    1    2    1   -0.000433    0.000001
   -6    2    1    3    1   -0.000546   -0.000011
   -6    2    1    4    1    0.000432   -0.000001
   -6    2    1    5    1   -0.000034   -0.000003
   -6    2    1    6    1   -0.001188   -0.000009
   -6    2    1    7    1    0.001182    0.000004
   -6    2    1    8    1   -0.000475    0.000001
   -6    2    1    1    2    0.001187   -0.000010
   -6    2    1    2    2    0.000096   -0.000017
   -6    2    1    3    2   -0.000201   -0.000018
   -6    2    1    4    2    0.000147    0.000003
   -6    2    1    5    2    0.001191    0.000002
   -6    2    1    6    2   -0.001706   -0.000009
   -6    2    1    7    2    0.001244   -0.000020
   -6    2    1    8    2   -0.000663   -0.000010
   -6    2    1    1    3    0.000435   -0.000015
   -6    2    1    2    3   -0.000804   -0.000016
   -6    2    1    3    3    0.001111    0.000046
   -6    2    1    4    3    0.000804    0.000019
   -6    2    1    5    3   -0.001182   -0.000001
   -6    2    1    6    3    0.001240    0.000022
   -6    2    1    7    3   -0.001707    0.000002
   -6    2    1    8    3    0.000646    0.000018
   -6    2    1    1    4   -0.001183    0.000005
   -6    2    1    2    4    0.000135    0.000004
   -6    2    1    3    4    0.000198    0.000020
   -6    2    1    4    4    0.000143   -0.000022
   -6    2    1    5    4    0.000475    0.000009
   -6    2    1    6    4   -0.000625   -0.000013
   -6    2    1    7    4    0.000650    0.000004
   -6    2    1    8    4    0.000186   -0.000003
   -6    2    1    1    5   -0.001167   -0.000003
   -6    2    1    2    5   -0.000393   -0.000002
   -6    2    1    3    5    0.000565   -0.000001
   -6    2    1    4    5   -0.000550   -0.000005
   -6    2    1    5    5   -0.000799    0.000002
   -6    2    1    6    5   -0.001191   -0.000006
   -6    2    1    7    5   -0.000435   -0.000003
   -6    2    1    8    5    0.001181    0.000001
   -6    2    1    1    6    0.000390   -0.000002
   -6    2    1    2    6   -0.000100   -0.000028
   -6    2    1    3    6   -0.000932    0.000012
   -6    2    1    4    6    0.001387    0.000003
   -6    2    1    5    6    0.000433   -0.000000
   -6    2    1    6    6    0.000138    0.000013
   -6    2    1    7    6   -0.000801   -0.000024
   -6    2    1    8    6    0.000133   -0.000000
   -6    2    1    1    7   -0.000565   -0.000010
   -6    2    1    2    7   -0.000928   -0.000018
   -6    2    1    3    7    0.001396    0.000022
   -6    2    1    4    7    0.000297   -0.000020
   -6    2    1    5    7    0.000546    0.000003
   -6    2    1    6    7   -0.000203   -0.000006
   -6    2    1    7    7    0.001113   -0.000032
   -6    2    1    8    7    0.000202    0.000004
   -6    2    1    1    8    0.000545   -0.000004
   -6    2    1    2    8    0.001338    0.000005
   -6    2    1    3    8    0.000300    0.000022
   -6    2    1    4    8    0.000007    0.000010
   -6    2    1    5    8   -0.000431    0.000000
   -6    2    1    6    8    0.000144    0.000000
   -6    2    1    7    8    0.000807    0.000021
   -6    2    1    8    8    0.000102    0.000018
   -6    2    2    1    1    0.001123    0.000008
   -6    2    2    2    1    0.001484    0.000000
   -6    2    2    3    1   -0.001480    0.000001
   -6    2    2    4    1    0.001478   -0.000000
   -6    2    2    5    1   -0.000034   -0.000003
   -6    2    2    6    1   -0.001184   -0.000005
   -6    2    2    7    1    0.000470   -0.000002
   -6    2    2    8    1   -0.001184   -0.000005
   -6    2    2    1    2    0.000827    0.000003
   -6    2    2    2    2   -0.000093    0.000026
   -6    2    2    3    2   -0.001110    0.000018
   -6    2    2    4    2    0.001108   -0.000019
   -6    2    2    5    2    0.001178    0.000002
   -6    2    2    6    2   -0.001706   -0.000001
   -6    2    2    7    2    0.000643    0.000019
   -6    2    2    8    2   -0.001232    0.000004
   -6    2    2    1    3   -0.000829   -0.000001
   -6    2    2    2    3   -0.001114    0.000020
   -6    2    2    3    3   -0.000108    0.000004
   -6    2    2    4    3   -0.001107    0.000014
   -6    2    2    5    3   -0.000470   -0.000007
   -6    2    2    6    3    0.000648    0.000003
   -6    2    2    7    3    0.000194    0.000006
   -6    2    2    8    3    0.000645    0.000021
   -6    2    2    1    4    0.000831   -0.000003
   -6    2    2    2    4    0.001114   -0.000015
   -6    2    2    3    4   -0.001113    0.000016
   -6    2    2    4    4   -0.000122   -0.000015
   -6    2    2    5    4    0.001188    0.000004
   -6    2    2    6    4   -0.001237   -0.000006
   -6    2    2    7    4    0.000643    0.000000
   -6    2    2    8    4   -0.001717   -0.000015
   -6    2    2    1    5   -0.000201    0.000001
   -6    2    2    2    5   -0.000002    0.000001
   -6    2    2    3    5   -0.000268    0.000006
   -6    2    2    4    5   -0.000001   -0.000003
   -6    2    2    5    5    0.001118    0.000003
   -6    2    2    6    5   -0.000827    0.000005
   -6    2    2    7    5    0.000832   -0.000002
   -6    2    2    8    5   -0.000836   -0.000002
   -6    2    2    1    6    0.000002    0.000001
   -6    2    2    2    6    0.000224    0.000009
   -6    2    2    3    6   -0.000004   -0.000028
   -6    2    2    4    6   -0.002428    0.000001
   -6    2    2    5    6   -0.001479   -0.000007
   -6    2    2    6    6   -0.000118   -0.000012
   -6    2    2    7    6   -0.001115    0.000003
   -6    2    2    8    6    0.001096   -0.000014
   -6    2    2    1    7    0.000268    0.000002
   -6    2    2    2    7   -0.000002    0.000029
   -6    2    2    3    7    0.001171    0.000043
   -6    2    2    4    7   -0.000001   -0.000029
   -6    2    2    5    7    0.001478    0.000006
   -6    2    2    6    7   -0.001110    0.000025
   -6    2    2    7    7   -0.000109    0.000007
   -6    2    2    8    7   -0.001119    0.000006
   -6    2    2    1    8    0.000001   -0.000003
   -6    2    2    2    8   -0.002391   -0.000001
   -6    2    2    3    8    0.000001    0.000028
   -6    2    2    4    8    0.000231    0.000009
   -6    2    2    5    8   -0.001481   -0.000003
   -6    2    2    6    8    0.001132   -0.000016
   -6    2    2    7    8   -0.001112    0.000028
   -6    2    2    8    8   -0.000101    0.000023
   -6    2    3    1    1   -0.000802   -0.000002
   -6    2    3    2    1   -0.000430    0.000003
   -6    2    3    3    1   -0.000433    0.000002
   -6    2    3    4    1    0.000538   -0.000000
   -6    2    3    5    1    0.001662    0.000003
   -6    2    3    6    1   -0.000196    0.000007
   -6    2    3    7    1   -0.000205   -0.000003
   -6    2    3    8    1    0.000102    0.000003
   -6    2    3    1    2    0.001176    0.000000
   -6    2    3    2    2    0.000128   -0.000004
   -6    2    3    3    2   -0.000136    0.000001
   -6    2    3    4    2    0.000200    0.000016
   -6    2    3    5    2    0.000194    0.000005
   -6    2    3    6    2    0.000286    0.000010
   -6    2    3    7    2   -0.002564    0.000007
   -6    2    3    8    2   -0.000145    0.000005
   -6    2    3    1    3    0.001177   -0.000002
   -6    2    3    2    3   -0.000148   -0.000002
   -6    2    3    3    3    0.000121    0.000017
   -6    2    3    4    3    0.000198    0.000011
   -6    2    3    5    3    0.000205   -0.000004
   -6    2    3    6    3   -0.002562   -0.000015
   -6    2    3    7    3    0.000298    0.000025
   -6    2    3    8    3   -0.000173    0.000019
   -6    2    3    1    4   -0.000429    0.000001
   -6    2    3    2    4    0.000803    0.000019
   -6    2    3    3    4    0.000805    0.000020
   -6    2    3    4    4    0.001099   -0.000016
   -6    2    3    5    4   -0.000105    0.000002
   -6    2    3    6    4   -0.000179    0.000010
   -6    2    3    7    4   -0.000167   -0.000007
   -6    2    3    8    4    0.000593    0.000011
   -6    2    3    1    5   -0.000201    0.000001
   -6    2    3    2    5    0.000003    0.000002
   -6    2    3    3    5   -0.000004   -0.000005
   -6    2    3    4    5    0.000272   -0.000005
   -6    2    3    5    5   -0.000799    0.000002
   -6    2    3    6    5   -0.001176    0.000001
   -6    2    3    7    5   -0.001181   -0.000001
   -6    2    3    8    5    0.000422   -0.000010
   -6    2    3    1    6   -0.000003    0.000002
   -6    2    3    2    6    0.000237    0.000017
   -6    2    3    3    6    0.002413    0.000018
   -6    2    3    4    6   -0.000004   -0.000003
   -6    2    3    5    6    0.000425    0.000002
   -6    2    3    6    6    0.000110    0.000005
   -6    2    3    7    6   -0.000143    0.000017
   -6    2    3    8    6    0.000819    0.000015
   -6    2    3    1    7    0.000004   -0.000005
   -6    2    3    2    7    0.002417   -0.000017
   -6    2    3    3    7    0.000226    0.000001
   -6    2    3    4    7   -0.000000   -0.000023
   -6    2    3    5    7    0.000434   -0.000000
   -6    2    3    6    7   -0.000132   -0.000021
   -6    2    3    7    7    0.000119   -0.000028
   -6    2    3    8    7    0.000807    0.000009
   -6    2    3    1    8   -0.000276   -0.000000
   -6    2    3    2    8   -0.000003    0.000005
   -6    2    3    3    8    0.000002    0.000021
   -6    2    3    4    8    0.001161    0.000043
   -6    2    3    5    8   -0.000539   -0.000002
   -6    2    3    6    8    0.000186    0.000014
   -6    2    3    7    8    0.000202    0.000025
   -6    2    3    8    8    0.001124    0.000021
   -6    3    0    1    1   -0.000235   -0.000002
   -6    3    0    2    1   -0.000833   -0.000003
   -6    3    0    3    1    0.000831    0.000005
   -6    3    0    4    1    0.000830    0.000003
   -6    3    0    5    1    0.001662    0.000003
   -6    3    0    6    1    0.000107    0.000004
   -6    3    0    7    1    0.000202   -0.000001
   -6    3    0    8    1    0.000198   -0.000002
   -6    3    0    1    2   -0.000445    0.000000
   -6    3    0    2    2    0.000305   -0.000004
   -6    3    0    3    2   -0.000598    0.000009
   -6    3    0    4    2   -0.000611    0.000005
   -6    3    0    5    2   -0.000104    0.000004
   -6    3    0    6    2    0.000583    0.000011
   -6    3    0    7    2    0.000169    0.000004
   -6    3    0    8    2    0.000148   -0.000007
   -6    3    0    1    3    0.000445    0.000001
   -6    3    0    2    3   -0.000611    0.000003
   -6    3    0    3    3    0.000324   -0.000009
   -6    3    0    4    3    0.000607   -0.000004
   -6    3    0    5    3   -0.000202   -0.000000
   -6    3    0    6    3    0.000162   -0.000018
   -6    3    0    7    3    0.000291    0.000016
   -6    3    0    8    3   -0.002565    0.000003
   -6    3    0    1    4    0.000439    0.000000
   -6    3    0    2    4   -0.000594    0.000005
   -6    3    0    3    4    0.000596   -0.000010
   -6    3    0    4    4    0.000344    0.000000
   -6    3    0    5    4   -0.000200    0.000001
   -6    3    0    6    4    0.000182   -0.000006
   -6    3    0    7    4   -0.002563   -0.000011
   -6    3    0    8    4    0.000302    0.000018
   -6    3    0    1    5    0.000028    0.000000
   -6    3    0    2    5    0.000108   -0.000003
   -6    3    0    3    5    0.000238    0.000004
   -6    3    0    4    5    0.000231   -0.000003
   -6    3    0    5    5   -0.000241   -0.000001
   -6    3    0    6    5    0.000443    0.000006
   -6    3    0    7    5   -0.000446   -0.000001
   -6    3    0    8    5   -0.000443   -0.000005
   -6    3    0    1    6   -0.000112   -0.000001
   -6    3    0    2    6    0.000523    0.000003
   -6    3    0    3    6    0.000258    0.000004
   -6    3    0    4    6    0.000283    0.000002
   -6    3    0    5    6    0.000829    0.000001
   -6    3    0    6    6    0.000339   -0.000009
   -6    3    0    7    6   -0.000606    0.000021
   -6    3    0    8    6   -0.000596    0.000006
   -6    3    0    1    7   -0.000239    0.000007
   -6    3    0    2    7    0.000258   -0.000004
   -6    3    0    3    7   -0.000038   -0.000020
   -6    3    0    4    7   -0.000632    0.000021
   -6    3    0    5    7   -0.000830   -0.000001
   -6    3    0    6    7   -0.000597   -0.000007
   -6    3    0    7    7    0.000324    0.000013
   -6    3    0    8    7    0.000597    0.000008
   -6    3    0    1    8   -0.000232    0.000001
   -6    3    0    2    8    0.000245    0.000001
   -6    3    0    3    8   -0.000634   -0.000008
   -6    3    0    4    8   -0.000043   -0.000020
   -6    3    0    5    8   -0.000831   -0.000001
   -6    3    0    6    8   -0.000609    0.000006
   -6    3    0    7    8    0.000612   -0.000020
   -6    3    0    8    8    0.000308   -0.000014
   -6    3    1    1    1   -0.000802   -0.000001
   -6    3    1    2    1    0.000541    0.000000
   -6    3    1    3    1    0.000429   -0.000006
   -6    3    1    4    1    0.000432   -0.000001
   -6    3    1    5    1   -0.001392   -0.000003
   -6    3    1    6    1    0.000862   -0.000001
   -6    3    1    7    1   -0.000003   -0.000004
   -6    3    1    8    1    0.000003   -0.000000
   -6    3    1    1    2   -0.000427    0.000003
   -6    3    1    2    2    0.001121   -0.000017
   -6    3    1    3    2   -0.000801   -0.000021
   -6    3    1    4    2   -0.000811   -0.000021
   -6    3    1    5    2   -0.000872    0.000003
   -6    3    1    6    2   -0.002639   -0.000036
   -6    3    1    7    2   -0.000002   -0.000022
   -6    3    1    8    2    0.000002    0.000000
   -6    3    1    1    3   -0.001182    0.000001
   -6    3    1    2    3   -0.000203   -0.000012
   -6    3    1    3    3    0.000120    0.000018
   -6    3    1    4    3   -0.000150    0.000002
   -6    3    1    5    3    0.000004    0.000001
   -6    3    1    6    3   -0.000002    0.000019
   -6    3    1    7    3    0.002676   -0.000004
   -6    3    1    8    3   -0.000063    0.000002
   -6    3    1    1    4   -0.001178    0.000002
   -6    3    1    2    4   -0.000194   -0.000015
   -6    3    1    3    4   -0.000130   -0.000004
   -6    3    1    4    4    0.000110   -0.000003
   -6    3    1    5    4   -0.000003    0.000002
   -6    3    1    6    4    0.000002   -0.000002
   -6    3    1    7    4   -0.000063   -0.000023
   -6    3    1    8    4    0.002687    0.000005
   -6    3    1    1    5   -0.002246    0.000004
   -6    3    1    2    5    0.000435    0.000004
   -6    3    1    3    5   -0.000442   -0.000013
   -6    3    1    4    5   -0.000423    0.000000
   -6    3    1    5    5   -0.000800    0.000001
   -6    3    1    6    5    0.000431   -0.000008
   -6    3    1    7    5    0.001181    0.000001
   -6    3    1    8    5    0.001181   -0.000000
   -6    3    1    1    6   -0.000433   -0.000007
   -6    3    1    2    6   -0.001124   -0.000034
   -6    3    1    3    6   -0.000364    0.000014
   -6    3    1    4    6   -0.000392   -0.000001
   -6    3    1    5    6   -0.000539   -0.000001
   -6    3    1    6    6    0.001106    0.000023
   -6    3    1    7    6   -0.000206   -0.000025
   -6    3    1    8    6   -0.000214   -0.000012
   -6    3    1    1    7    0.000443   -0.000006
   -6    3    1    2    7   -0.000364   -0.000017
   -6    3    1    3    7   -0.001116   -0.000013
   -6    3    1    4    7    0.000370    0.000019
   -6    3    1    5    7   -0.000429   -0.000005
   -6    3    1    6    7   -0.000796   -0.000006
   -6    3    1    7    7    0.000119   -0.000018
   -6    3    1    8    7   -0.000129    0.000018
   -6    3    1    1    8    0.000426    0.000011
   -6    3    1    2    8   -0.000359   -0.000003
   -6    3    1    3    8    0.000368   -0.000016
   -6    3    1    4    8   -0.001109   -0.000034
   -6    3    1    5    8   -0.000437    0.000001
   -6    3    1    6    8   -0.000793   -0.000017
   -6    3    1    7    8   -0.000151   -0.000021
   -6    3    1    8    8    0.000127   -0.000006
   -6    3    2    1    1   -0.000802   -0.000002
   -6    3    2    2    1    0.000541    0.000005
   -6    3    2    3    1   -0.000430    0.000002
   -6    3    2    4    1   -0.000431    0.000002
   -6    3    2    5    1    0.001662    0.000003
   -6    3    2    6    1    0.000107   -0.000001
   -6    3    2    7    1   -0.000196    0.000008
   -6    3    2    8    1   -0.000204    0.000000
   -6    3    2    1    2   -0.000427    0.000008
   -6    3    2    2    2    0.001122    0.000025
   -6    3    2    3    2    0.000801    0.000016
   -6    3    2    4    2    0.000811    0.000019
   -6    3    2    5    2   -0.000104   -0.000002
   -6    3    2    6    2    0.000583    0.000023
   -6    3    2    7    2   -0.000164    0.000019
   -6    3    2    8    2   -0.000152    0.000005
   -6    3    2    1    3    0.001182   -0.000004
   -6    3    2    2    3    0.000203    0.000017
   -6    3    2    3    3    0.000118   -0.000021
   -6    3    2    4    3   -0.000139    0.000001
   -6    3    2    5    3    0.000197    0.000003
   -6    3    2    6    3   -0.000158   -0.000002
   -6    3    2    7    3    0.000290    0.000004
   -6    3    2    8    3   -0.002565    0.000007
   -6    3    2    1    4    0.001179   -0.000004
   -6    3    2    2    4    0.000194    0.000014
   -6    3    2    3    4   -0.000142   -0.000002
   -6    3    2    4    4    0.000111   -0.000001
   -6    3    2    5    4    0.000206   -0.000005
   -6    3    2    6    4   -0.000186    0.000009
   -6    3    2    7    4   -0.002563   -0.000010
   -6    3    2    8    4    0.000302    0.000019
   -6    3    2    1    5   -0.000200    0.000001
   -6    3    2    2    5    0.000273   -0.000005
   -6    3    2    3    5    0.000003    0.000004
   -6    3    2    4    5   -0.000003   -0.000002
   -6    3    2    5    5   -0.000800    0.000002
   -6    3    2    6    5    0.000431   -0.000003
   -6    3    2    7    5   -0.001181   -0.000001
   -6    3    2    8    5   -0.001181   -0.000001
   -6    3    2    1    6   -0.000269   -0.000000
   -6    3    2    2    6    0.001179    0.000043
   -6    3    2    3    6   -0.000004   -0.000024
   -6    3    2    4    6    0.000003   -0.000003
   -6    3    2    5    6   -0.000540   -0.000005
   -6    3    2    6    6    0.001105   -0.000014
   -6    3    2    7    6    0.000206    0.000005
   -6    3    2    8    6    0.000214    0.000016
   -6    3    2    1    7   -0.000003    0.000004
   -6    3    2    2    7   -0.000002    0.000026
   -6    3    2    3    7    0.000230    0.000017
   -6    3    2    4    7    0.002410    0.000015
   -6    3    2    5    7    0.000430    0.000001
   -6    3    2    6    7    0.000797    0.000025
   -6    3    2    7    7    0.000119    0.000022
   -6    3    2    8    7   -0.000141    0.000016
   -6    3    2    1    8    0.000003   -0.000002
   -6    3    2    2    8    0.000002    0.000000
   -6    3    2    3    8    0.002414   -0.000014
   -6    3    2    4    8    0.000217    0.000001
   -6    3    2    5    8    0.000436   -0.000000
   -6    3    2    6    8    0.000793    0.000017
   -6    3    2    7    8   -0.000139   -0.000021
   -6    3    2    8    8    0.000127   -0.000009
   -6    3    3    1    1   -0.000236   -0.000002
   -6    3    3    2    1   -0.000833   -0.000004
   -6    3    3    3    1   -0.000828   -0.000002
   -6    3    3    4    1   -0.000832   -0.000004
   -6    3    3    5    1    0.000506   -0.000000
   -6    3    3    6    1   -0.000947    0.000000
   -6    3    3    7    1   -0.000948    0.000000
   -6    3    3    8    1   -0.000950    0.000000
   -6    3    3    1    2   -0.000445   -0.000001
   -6    3    3    2    2    0.000305   -0.000003
   -6    3    3    3    2    0.000599   -0.000006
   -6    3    3    4    2    0.000610   -0.000004
   -6    3    3    5    2    0.000951   -0.000001
   -6    3    3    6    2    0.001022    0.000002
   -6    3    3    7    2   -0.000040    0.000000
   -6    3    3    8    2   -0.000053   -0.000011
   -6    3    3    1    3   -0.000444   -0.000000
   -6    3    3    2    3    0.000610   -0.000006
   -6    3    3    3    3    0.000324   -0.000006
   -6    3    3    4    3    0.000597   -0.000005
   -6    3    3    5    3    0.000950   -0.000002
   -6    3    3    6    3   -0.000043   -0.000015
   -6    3    3    7    3    0.001027    0.000007
   -6    3    3    8    3   -0.000041   -0.000001
   -6    3    3    1    4   -0.000440   -0.000000
   -6    3    3    2    4    0.000596   -0.000010
   -6    3    3    3    4    0.000606   -0.000005
   -6    3    3    4    4    0.000344   -0.000003
   -6    3    3    5    4    0.000949   -0.000003
   -6    3    3    6    4   -0.000028   -0.000005
   -6    3    3    7    4   -0.000045   -0.000017
   -6    3    3    8    4    0.001026    0.000012
   -6    3    3    1    5   -0.002246    0.000004
   -6    3    3    2    5    0.000435    0.000007
   -6    3    3    3    5    0.000436    0.000007
   -6    3    3    4    5    0.000429    0.000003
   -6    3    3    5    5   -0.000241   -0.000001
   -6    3    3    6    5    0.000443    0.000003
   -6    3    3    7    5    0.000445    0.000004
   -6    3    3    8    5    0.000444    0.000005
   -6    3    3    1    6   -0.000433   -0.000001
   -6    3    3    2    6   -0.001123   -0.000020
   -6    3    3    3    6    0.000370    0.000018
   -6    3    3    4    6    0.000387    0.000000
   -6    3    3    5    6    0.000829    0.000001
   -6    3    3    6    6    0.000339    0.000002
   -6    3    3    7    6    0.000606    0.000008
   -6    3    3    8    6    0.000598   -0.000006
   -6    3    3    1    7   -0.000437   -0.000003
   -6    3    3    2    7    0.000368   -0.000015
   -6    3    3    3    7   -0.001116   -0.000027
   -6    3    3    4    7    0.000370    0.000018
   -6    3    3    5    7    0.000827    0.000003
   -6    3    3    6    7    0.000597   -0.000022
   -6    3    3    7    7    0.000323   -0.000002
   -6    3    3    8    7    0.000608    0.000009
   -6    3    3    1    8   -0.000432   -0.000008
   -6    3    3    2    8    0.000353    0.000003
   -6    3    3    3    8    0.000368   -0.000015
   -6    3    3    4    8   -0.001110   -0.000034
   -6    3    3    5    8    0.000833    0.000000
   -6    3    3    6    8    0.000609   -0.000004
   -6    3    3    7    8    0.000601   -0.000022
   -6    3    3    8    8    0.000308   -0.000010
   -5   -3    4    1    1   -0.003197   -0.000001
   -5   -3    4    2    1   -0.000159   -0.000000
   -5   -3    4    3    1   -0.000153   -0.000001
   -5   -3    4    4    1    0.000155   -0.000000
   -5   -3    4    5    1   -0.003470   -0.000003
   -5   -3    4    6    1    0.000332    0.000003
   -5   -3    4    7    1    0.000331    0.000001
   -5   -3    4    8    1    0.000529   -0.000000
   -5   -3    4    1    2   -0.000201    0.000000
   -5   -3    4    2    2    0.000721    0.000010
   -5   -3    4    3    2   -0.000859    0.000001
   -5   -3    4    4    2    0.000854   -0.000004
   -5   -3    4    5    2   -0.000334    0.000002
   -5   -3    4    6    2    0.001630   -0.000000
   -5   -3    4    7    2   -0.000720    0.000015
   -5   -3    4    8    2    0.000570    0.000005
   -5   -3    4    1    3   -0.000199   -0.000001
   -5   -3    4    2    3   -0.000855    0.000007
   -5   -3    4    3    3    0.000721   -0.000013
   -5   -3    4    4    3    0.000857   -0.000006
   -5   -3    4    5    3   -0.000332   -0.000003
   -5   -3    4    6    3   -0.000720    0.000008
   -5   -3    4    7    3    0.001628   -0.000005
   -5   -3    4    8    3    0.000579   -0.000004
   -5   -3    4    1    4    0.000199    0.000001
   -5   -3    4    2    4    0.000859   -0.000005
   -5   -3    4    3    4    0.000855    0.000000
   -5   -3    4    4    4    0.000716    0.000010
   -5   -3    4    5    4   -0.000529    0.000001
   -5   -3    4    6    4    0.000578    0.000003
   -5   -3    4    7    4    0.000579    0.000010
   -5   -3    4    8    4    0.001411   -0.000011
   -5   -3    4    1    5   -0.002821    0.000001
   -5   -3    4    2    5    0.000335    0.000001
   -5   -3    4    3    5    0.000332    0.000000
   -5   -3    4    4    5   -0.000865    0.000002
   -5   -3    4    5    5   -0.003198   -0.000001
   -5   -3    4    6    5    0.000199    0.000003
   -5   -3    4    7    5    0.000198   -0.000000
   -5   -3    4    8    5   -0.000199   -0.000002
   -5   -3    4    1    6   -0.000334    0.000001
   -5   -3    4    2    6    0.000421    0.000003
   -5   -3    4    3    6    0.001194   -0.000002
   -5   -3    4    4    6   -0.000349   -0.000004
   -5   -3    4    5    6    0.000158   -0.000004
   -5   -3    4    6    6    0.000724   -0.000003
   -5   -3    4    7    6   -0.000856    0.000003
   -5   -3    4    8    6    0.000856   -0.000004
   -5   -3    4    1    7   -0.000331    0.000000
   -5   -3    4    2    7    0.001195   -0.000003
   -5   -3    4    3    7    0.000427   -0.000002
   -5   -3    4    4    7   -0.000346   -0.000003
   -5   -3    4    5    7    0.000153    0.000001
   -5   -3    4    6    7   -0.000860    0.000006
   -5   -3    4    7    7    0.000722    0.000007
   -5   -3    4    8    7    0.000858   -0.000007
   -5   -3    4    1    8    0.000864   -0.000001
   -5   -3    4    2    8   -0.000342   -0.000008
   -5   -3    4    3    8   -0.000344   -0.000009
   -5   -3    4    4    8    0.002291   -0.000004
   -5   -3    4    5    8   -0.000158    0.000003
   -5   -3    4    6    8    0.000863   -0.000005
   -5   -3    4    7    8    0.000860   -0.000003
   -5   -3    4    8    8    0.000715   -0.000004
   -5   -2    3    1    1   -0.002504   -0.000006
   -5   -2    3    2    1   -0.000062    0.000002
   -5   -2    3    3    1    0.000052    0.000002
   -5   -2    3    4    1    0.000063   -0.000000
   -5   -2    3    5    1   -0.002070    0.000002
   -5   -2    3    6    1    0.001336    0.000003
   -5   -2    3    7    1   -0.000901    0.000003
   -5   -2    3    8    1    0.000903   -0.000001
   -5   -2    3    1    2   -0.000390   -0.000001
   -5   -2    3    2    2    0.000974   -0.000007
   -5   -2    3    3    2   -0.000090   -0.000005
   -5   -2    3    4    2   -0.000428   -0.000011
   -5   -2    3    5    2   -0.001336   -0.000003
   -5   -2    3    6    2    0.000597   -0.000011
   -5   -2    3    7    2   -0.001050   -0.000016
   -5   -2    3    8    2    0.001050   -0.000002
   -5   -2    3    1    3    0.001948   -0.000003
   -5   -2    3    2    3   -0.000880   -0.000009
   -5   -2    3    3    3    0.000030    0.000022
   -5   -2    3    4    3    0.000873    0.000009
   -5   -2    3    5    3    0.000901    0.000002
   -5   -2    3    6    3   -0.001052    0.000004
   -5   -2    3    7    3    0.000721   -0.000002
   -5   -2    3    8    3   -0.001071    0.000000
   -5   -2    3    1    4    0.000391   -0.000001
   -5   -2    3    2    4   -0.000434   -0.000010
   -5   -2    3    3    4    0.000092    0.000004
   -5   -2    3    4    4    0.000963   -0.000009
   -5   -2    3    5    4   -0.000901    0.000003
   -5   -2    3    6    4    0.001055    0.000010
   -5   -2    3    7    4   -0.001068   -0.000002
   -5   -2    3    8    4    0.000706   -0.000011
   -5   -2    3    1    5   -0.002603    0.000003
   -5   -2    3    2    5   -0.000506   -0.000003
   -5   -2    3    3    5   -0.000656    0.000006
   -5   -2    3    4    5   -0.001898   -0.000000
   -5   -2    3    5    5   -0.002502    0.000002
   -5   -2    3    6    5    0.000391   -0.000003
   -5   -2    3    7    5   -0.001949   -0.000003
   -5   -2    3    8    5   -0.000392    0.000001
   -5   -2    3    1    6    0.000508    0.000003
   -5   -2    3    2    6   -0.000186   -0.000005
   -5   -2    3    3    6    0.000132   -0.000002
   -5   -2    3    4    6    0.001651   -0.000003
   -5   -2    3    5    6    0.000060    0.000003
   -5   -2    3    6    6    0.000972    0.000002
   -5   -2    3    7    6   -0.000878   -0.000007
   -5   -2    3    8    6   -0.000442   -0.000003
   -5   -2    3    1    7    0.000655    0.000000
   -5   -2    3    2    7    0.000132    0.000001
   -5   -2    3    3    7    0.000240    0.000013
   -5   -2    3    4    7    0.000219   -0.000006
   -5   -2    3    5    7   -0.000051   -0.000002
   -5   -2    3    6    7   -0.000086    0.000009
   -5   -2    3    7    7    0.000029   -0.000007
   -5   -2    3    8    7    0.000093   -0.000008
   -5   -2    3    1    8    0.001898   -0.000001
   -5   -2    3    2    8    0.001660   -0.000008
   -5   -2    3    3    8    0.000220    0.000014
   -5   -2    3    4    8    0.001271    0.000004
   -5   -2    3    5    8   -0.000064   -0.000001
   -5   -2    3    6    8   -0.000423   -0.000003
   -5   -2    3    7    8    0.000876    0.000007
   -5   -2    3    8    8    0.000967    0.000005
   -5   -2    4    1    1   -0.002505   -0.000001
   -5   -2    4    2    1   -0.000059    0.000000
   -5   -2    4    3    1   -0.000060   -0.000002
   -5   -2    4    4    1   -0.000048   -0.000006
   -5   -2    4    5    1   -0.002210    0.000001
   -5   -2    4    6    1    0.000482   -0.000003
   -5   -2    4    7    1    0.000486   -0.000003
   -5   -2    4    8    1    0.001475   -0.000002
   -5   -2    4    1    2   -0.000396   -0.000000
   -5   -2    4    2    2    0.000976    0.000010
   -5   -2    4    3    2    0.000428    0.000003
   -5   -2    4    4    2    0.000094    0.000001
   -5   -2    4    5    2   -0.000485    0.000002
   -5   -2    4    6    2    0.001414    0.000005
   -5   -2    4    7    2   -0.000647    0.000003
   -5   -2    4    8    2    0.000867   -0.000003
   -5   -2    4    1    3   -0.000395    0.000000
   -5   -2    4    2    3    0.000436    0.000009
   -5   -2    4    3    3    0.000967    0.000000
   -5   -2    4    4    3    0.000098    0.000006
   -5   -2    4    5    3   -0.000486    0.000002
   -5   -2    4    6    3   -0.000650   -0.000002
   -5   -2    4    7    3    0.001427    0.000001
   -5   -2    4    8    3    0.000849    0.000005
   -5   -2    4    1    4   -0.001946   -0.000003
   -5   -2    4    2    4    0.000875    0.000004
   -5   -2    4    3    4    0.000871   -0.000000
   -5   -2    4    4    4    0.000021   -0.000009
   -5   -2    4    5    4   -0.001480   -0.000003
   -5   -2    4    6    4    0.000842    0.000007
   -5   -2    4    7    4    0.000851   -0.000004
   -5   -2    4    8    4    0.000633    0.000001
   -5   -2    4    1    5   -0.003803    0.000001
   -5   -2    4    2    5    0.001715    0.000000
   -5   -2    4    3    5    0.001719    0.000000
   -5   -2    4    4    5   -0.001717   -0.000002
   -5   -2    4    5    5   -0.002503   -0.000002
   -5   -2    4    6    5    0.000398   -0.000000
   -5   -2    4    7    5    0.000395   -0.000001
   -5   -2    4    8    5    0.001946    0.000001
   -5   -2    4    1    6   -0.001715   -0.000000
   -5   -2    4    2    6    0.001725    0.000014
   -5   -2    4    3    6   -0.000496   -0.000012
   -5   -2    4    4    6    0.000496    0.000003
   -5   -2    4    5    6    0.000057   -0.000001
   -5   -2    4    6    6    0.000957   -0.000000
   -5   -2    4    7    6    0.000437    0.000005
   -5   -2    4    8    6    0.000886    0.000003
   -5   -2    4    1    7   -0.001719   -0.000003
   -5   -2    4    2    7   -0.000499    0.000005
   -5   -2    4    3    7    0.001709    0.000009
   -5   -2    4    4    7    0.000494   -0.000004
   -5   -2    4    5    7    0.000060   -0.000001
   -5   -2    4    6    7    0.000427    0.000014
   -5   -2    4    7    7    0.000969    0.000008
   -5   -2    4    8    7    0.000869    0.000004
   -5   -2    4    1    8    0.001717   -0.000001
   -5   -2    4    2    8    0.000506    0.000003
   -5   -2    4    3    8    0.000496    0.000012
   -5   -2    4    4    8    0.001717    0.000015
   -5   -2    4    5    8    0.000046    0.000001
   -5   -2    4    6    8    0.000081    0.000004
   -5   -2    4    7    8    0.000097    0.000005
   -5   -2    4    8    8    0.000040    0.000001
   -5   -1    2    1    1   -0.000088   -0.000001
   -5   -1    2    2    1   -0.000136   -0.000002
   -5   -1    2    3    1    0.000061    0.000002
   -5   -1    2    4    1    0.000137    0.000002
   -5   -1    2    5    1   -0.000504    0.000001
   -5   -1    2    6    1   -0.000039    0.000002
   -5   -1    2    7    1   -0.001151   -0.000006
   -5   -1    2    8    1    0.000400   -0.000003
   -5   -1    2    1    2    0.000365   -0.000001
   -5   -1    2    2    2    0.000609   -0.000002
   -5   -1    2    3    2   -0.000681   -0.000004
   -5   -1    2    4    2    0.001177   -0.000002
   -5   -1    2    5    2    0.000042   -0.000002
   -5   -1    2    6    2   -0.000247   -0.000011
   -5   -1    2    7    2   -0.001044    0.000007
   -5   -1    2    8    2    0.000773    0.000010
   -5   -1    2    1    3    0.000742    0.000006
   -5   -1    2    2    3   -0.000257   -0.000009
   -5   -1    2    3    3   -0.000360    0.000001
   -5   -1    2    4    3    0.000251    0.000008
   -5   -1    2    5    3    0.001151    0.000005
   -5   -1    2    6    3   -0.001045   -0.000009
   -5   -1    2    7    3    0.000432    0.000021
   -5   -1    2    8    3   -0.000814    0.000005
   -5   -1    2    1    4   -0.000368    0.000003
   -5   -1    2    2    4    0.001186   -0.000001
   -5   -1    2    3    4    0.000680    0.000003
   -5   -1    2    4    4    0.000588    0.000001
   -5   -1    2    5    4   -0.000394   -0.000009
   -5   -1    2    6    4    0.000766    0.000011
   -5   -1    2    7    4   -0.000808   -0.000020
   -5   -1    2    8    4    0.000643    0.000006
   -5   -1    2    1    5   -0.003162   -0.000001
   -5   -1    2    2    5   -0.000665   -0.000001
   -5   -1    2    3    5    0.001281   -0.000009
   -5   -1    2    4    5   -0.001538    0.000002
   -5   -1    2    5    5   -0.000088   -0.000001
   -5   -1    2    6    5   -0.000365    0.000002
   -5   -1    2    7    5   -0.000741    0.000000
   -5   -1    2    8    5    0.000368   -0.000000
   -5   -1    2    1    6    0.000666   -0.000000
   -5   -1    2    2    6    0.000381   -0.000023
   -5   -1    2    3    6    0.001123    0.000019
   -5   -1    2    4    6    0.001928   -0.000007
   -5   -1    2    5    6    0.000139   -0.000001
   -5   -1    2    6    6    0.000597    0.000015
   -5   -1    2    7    6   -0.000251    0.000004
   -5   -1    2    8    6    0.001175   -0.000016
   -5   -1    2    1    7   -0.001283    0.000000
   -5   -1    2    2    7    0.001126   -0.000008
   -5   -1    2    3    7   -0.000529   -0.000019
   -5   -1    2    4    7   -0.001345    0.000009
   -5   -1    2    5    7   -0.000061   -0.000008
   -5   -1    2    6    7   -0.000681   -0.000019
   -5   -1    2    7    7   -0.000356   -0.000016
   -5   -1    2    8    7    0.000682    0.000020
   -5   -1    2    1    8    0.001537    0.000004
   -5   -1    2    2    8    0.001946   -0.000008
   -5   -1    2    3    8   -0.001341   -0.000001
   -5   -1    2    4    8    0.002268   -0.000016
   -5   -1    2    5    8   -0.000135    0.000001
   -5   -1    2    6    8    0.001187   -0.000016
   -5   -1    2    7    8    0.000250   -0.000003
   -5   -1    2    8    8    0.000599    0.000012
   -5   -1    3    1    1   -0.000579    0.000006
   -5   -1    3    2    1   -0.000367    0.000002
   -5   -1    3    3    1    0.000200   -0.000003
   -5   -1    3    4    1   -0.000204   -0.000003
   -5   -1    3    5    1   -0.000505    0.000002
   -5   -1    3    6    1   -0.000042    0.000001
   -5   -1    3    7    1   -0.000403   -0.000008
   -5   -1    3    8    1    0.001147    0.000002
   -5   -1    3    1    2   -0.000303    0.000004
   -5   -1    3    2    2    0.001204   -0.000014
   -5   -1    3    3    2   -0.000970   -0.000001
   -5   -1    3    4    2    0.000972    0.000010
   -5   -1    3    5    2    0.000040    0.000001
   -5   -1    3    6    2   -0.000251   -0.000007
   -5   -1    3    7    2   -0.000769   -0.000022
   -5   -1    3    8    2    0.001057    0.000003
   -5   -1    3    1    3    0.000797   -0.000000
   -5   -1    3    2    3   -0.000796   -0.000006
   -5   -1    3    3    3   -0.000042    0.000015
   -5   -1    3    4    3    0.000282    0.000000
   -5   -1    3    5    3    0.000403   -0.000001
   -5   -1    3    6    3   -0.000770    0.000006
   -5   -1    3    7    3    0.000641    0.000001
   -5   -1    3    8    3   -0.000803    0.000007
   -5   -1    3    1    4   -0.000800    0.000002
   -5   -1    3    2    4    0.000796    0.000006
   -5   -1    3    3    4    0.000287   -0.000000
   -5   -1    3    4    4   -0.000050   -0.000006
   -5   -1    3    5    4   -0.001152   -0.000010
   -5   -1    3    6    4    0.001029    0.000002
   -5   -1    3    7    4   -0.000804   -0.000022
   -5   -1    3    8    4    0.000439    0.000025
   -5   -1    3    1    5   -0.001556    0.000001
   -5   -1    3    2    5    0.000148    0.000001
   -5   -1    3    3    5   -0.000034   -0.000005
   -5   -1    3    4    5   -0.000148    0.000001
   -5   -1    3    5    5   -0.000581    0.000000
   -5   -1    3    6    5    0.000302   -0.000004
   -5   -1    3    7    5   -0.000797    0.000001
   -5   -1    3    8    5    0.000797    0.000002
   -5   -1    3    1    6   -0.000150   -0.000006
   -5   -1    3    2    6    0.000380    0.000004
   -5   -1    3    3    6    0.000217   -0.000003
   -5   -1    3    4    6    0.001496   -0.000003
   -5   -1    3    5    6    0.000365    0.000000
   -5   -1    3    6    6    0.001182    0.000002
   -5   -1    3    7    6   -0.000799   -0.000015
   -5   -1    3    8    6    0.000810    0.000007
   -5   -1    3    1    7    0.000033    0.000002
   -5   -1    3    2    7    0.000213    0.000000
   -5   -1    3    3    7    0.000076    0.000006
   -5   -1    3    4    7   -0.000220   -0.000001
   -5   -1    3    5    7   -0.000202   -0.000006
   -5   -1    3    6    7   -0.000973   -0.000006
   -5   -1    3    7    7   -0.000042   -0.000018
   -5   -1    3    8    7    0.000283    0.000009
   -5   -1    3    1    8    0.000145    0.000007
   -5   -1    3    2    8    0.001506   -0.000004
   -5   -1    3    3    8   -0.000217    0.000004
   -5   -1    3    4    8    0.000372    0.000004
   -5   -1    3    5    8    0.000206   -0.000002
   -5   -1    3    6    8    0.000961    0.000010
   -5   -1    3    7    8    0.000280   -0.000012
   -5   -1    3    8    8   -0.000030    0.000008
   -5   -1    4    1    1   -0.000091   -0.000003
   -5   -1    4    2    1   -0.000130    0.000003
   -5   -1    4    3    1   -0.000131   -0.000001
   -5   -1    4    4    1   -0.000066   -0.000004
   -5   -1    4    5    1   -0.001283    0.000009
   -5   -1    4    6    1   -0.000968   -0.000002
   -5   -1    4    7    1   -0.000966   -0.000006
   -5   -1    4    8    1   -0.000558   -0.000006
   -5   -1    4    1    2    0.000370   -0.000005
   -5   -1    4    2    2    0.000580    0.000015
   -5   -1    4    3    2   -0.001186    0.000010
   -5   -1    4    4    2    0.000682    0.000006
   -5   -1    4    5    2    0.000972    0.000006
   -5   -1    4    6    2    0.000367    0.000022
   -5   -1    4    7    2   -0.001717    0.000018
   -5   -1    4    8    2   -0.000302   -0.000009
   -5   -1    4    1    3    0.000360    0.000001
   -5   -1    4    2    3   -0.001177    0.000013
   -5   -1    4    3    3    0.000599   -0.000010
   -5   -1    4    4    3    0.000682    0.000011
   -5   -1    4    5    3    0.000967    0.000001
   -5   -1    4    6    3   -0.001714    0.000019
   -5   -1    4    7    3    0.000373    0.000001
   -5   -1    4    8    3   -0.000271    0.000005
   -5   -1    4    1    4   -0.000743    0.000001
   -5   -1    4    2    4    0.000255    0.000006
   -5   -1    4    3    4    0.000255    0.000006
   -5   -1    4    4    4   -0.000341    0.000001
   -5   -1    4    5    4    0.000558   -0.000002
   -5   -1    4    6    4   -0.000270   -0.000004
   -5   -1    4    7    4   -0.000280   -0.000021
   -5   -1    4    8    4   -0.001514    0.000025
   -5   -1    4    1    5   -0.001557    0.000000
   -5   -1    4    2    5    0.000152    0.000001
   -5   -1    4    3    5    0.000153    0.000004
   -5   -1    4    4    5    0.000029    0.000004
   -5   -1    4    5    5   -0.000088    0.000002
   -5   -1    4    6    5   -0.000374    0.000000
   -5   -1    4    7    5   -0.000360    0.000008
   -5   -1    4    8    5    0.000746   -0.000004
   -5   -1    4    1    6   -0.000150   -0.000003
   -5   -1    4    2    6    0.000379    0.000012
   -5   -1    4    3    6   -0.001502   -0.000009
   -5   -1    4    4    6   -0.000202   -0.000001
   -5   -1    4    5    6    0.000136    0.000003
   -5   -1    4    6    6    0.000610   -0.000004
   -5   -1    4    7    6   -0.001182   -0.000000
   -5   -1    4    8    6    0.000245    0.000004
   -5   -1    4    1    7   -0.000152    0.000001
   -5   -1    4    2    7   -0.001501    0.000015
   -5   -1    4    3    7    0.000376    0.000012
   -5   -1    4    4    7   -0.000211    0.000003
   -5   -1    4    5    7    0.000132   -0.000003
   -5   -1    4    6    7   -0.001190    0.000012
   -5   -1    4    7    7    0.000600   -0.000000
   -5   -1    4    8    7    0.000253    0.000019
   -5   -1    4    1    8   -0.000030   -0.000002
   -5   -1    4    2    8   -0.000232    0.000002
   -5   -1    4    3    8   -0.000211   -0.000003
   -5   -1    4    4    8    0.000072   -0.000012
   -5   -1    4    5    8    0.000071    0.000003
   -5   -1    4    6    8    0.000688    0.000011
   -5   -1    4    7    8    0.000680   -0.000008
   -5   -1    4    8    8   -0.000372    0.000003
   -5    0    1    1    1    0.000818    0.000002
   -5    0    1    2    1    0.001245   -0.000004
   -5    0    1    3    1   -0.002329   -0.000002
   -5    0    1    4    1   -0.001249    0.000001
   -5    0    1    5    1   -0.000947   -0.000005
   -5    0    1    6    1   -0.002159   -0.000007
   -5    0    1    7    1   -0.001867   -0.000006
   -5    0    1    8    1   -0.000192   -0.000000
   -5    0    1    1    2    0.000115   -0.000002
   -5    0    1    2    2    0.001674    0.000027
   -5    0    1    3    2    0.000307    0.000014
   -5    0    1    4    2    0.003227   -0.000013
   -5    0    1    5    2    0.002159    0.000000
   -5    0    1    6    2   -0.000305   -0.000002
   -5    0    1    7    2    0.001376    0.000009
   -5    0    1    8    2   -0.000603    0.000007
   -5    0    1    1    3   -0.003238    0.000002
   -5    0    1    2    3    0.000543    0.000021
   -5    0    1    3    3    0.002706   -0.000046
   -5    0    1    4    3   -0.000543   -0.000020
   -5    0    1    5    3    0.001866   -0.000003
   -5    0    1    6    3    0.001378   -0.000004
   -5    0    1    7    3    0.003489   -0.000023
   -5    0    1    8    3    0.002202   -0.000022
   -5    0    1    1    4   -0.000110   -0.000001
   -5    0    1    2    4    0.003223   -0.000013
   -5    0    1    3    4   -0.000308   -0.000010
   -5    0    1    4    4    0.001647    0.000024
   -5    0    1    5    4    0.000197    0.000004
   -5    0    1    6    4   -0.000616   -0.000001
   -5    0    1    7    4    0.002205    0.000030
   -5    0    1    8    4    0.000232   -0.000032
   -5    0    1    1    5   -0.002190   -0.000002
   -5    0    1    2    5    0.000313   -0.000004
   -5    0    1    3    5    0.001667    0.000005
   -5    0    1    4    5    0.001094    0.000000
   -5    0    1    5    5    0.000814   -0.000003
   -5    0    1    6    5   -0.000113    0.000002
   -5    0    1    7    5    0.003241    0.000004
   -5    0    1    8    5    0.000109   -0.000006
   -5    0    1    1    6   -0.000311   -0.000002
   -5    0    1    2    6    0.000557    0.000013
   -5    0    1    3    6    0.000522   -0.000036
   -5    0    1    4    6    0.000918   -0.000003
   -5    0    1    5    6   -0.001246   -0.000003
   -5    0    1    6    6    0.001654   -0.000021
   -5    0    1    7    6    0.000544    0.000014
   -5    0    1    8    6    0.003204   -0.000016
   -5    0    1    1    7   -0.001666    0.000000
   -5    0    1    2    7    0.000526    0.000025
   -5    0    1    3    7    0.001962    0.000003
   -5    0    1    4    7    0.001217    0.000014
   -5    0    1    5    7    0.002329    0.000008
   -5    0    1    6    7    0.000307    0.000023
   -5    0    1    7    7    0.002706    0.000049
   -5    0    1    8    7   -0.000309   -0.000027
   -5    0    1    1    8   -0.001097   -0.000005
   -5    0    1    2    8    0.000949   -0.000007
   -5    0    1    3    8    0.001217   -0.000021
   -5    0    1    4    8    0.000658   -0.000020
   -5    0    1    5    8    0.001252    0.000000
   -5    0    1    6    8    0.003242   -0.000017
   -5    0    1    7    8   -0.000541   -0.000015
   -5    0    1    8    8    0.001663   -0.000018
   -5    0    2    1    1   -0.001126   -0.000002
   -5    0    2    2    1    0.000192   -0.000000
   -5    0    2    3    1    0.000873    0.000006
   -5    0    2    4    1   -0.000646    0.000004
   -5    0    2    5    1    0.000688    0.000004
   -5    0    2    6    1    0.000311    0.000002
   -5    0    2    7    1   -0.001067    0.000006
   -5    0    2    8    1    0.001060    0.000002
   -5    0    2    1    2    0.000545   -0.000001
   -5    0    2    2    2    0.000943    0.000001
   -5    0    2    3    2   -0.001793   -0.000002
   -5    0    2    4    2    0.000049    0.000015
   -5    0    2    5    2   -0.000309   -0.000007
   -5    0    2    6    2    0.001313    0.000018
   -5    0    2    7    2   -0.000950    0.000012
   -5    0    2    8    2    0.000977    0.000009
   -5    0    2    1    3    0.000545    0.000007
   -5    0    2    2    3   -0.002018    0.000003
   -5    0    2    3    3   -0.000671   -0.000026
   -5    0    2    4    3    0.001268   -0.000018
   -5    0    2    5    3    0.001066   -0.000002
   -5    0    2    6    3   -0.000953   -0.000023
   -5    0    2    7    3    0.001557   -0.000005
   -5    0    2    8    3   -0.003396   -0.000028
   -5    0    2    1    4    0.000442   -0.000005
   -5    0    2    2    4   -0.000828    0.000015
   -5    0    2    3    4   -0.001240   -0.000009
   -5    0    2    4    4    0.001046    0.000020
   -5    0    2    5    4   -0.001063    0.000002
   -5    0    2    6    4    0.000944    0.000004
   -5    0    2    7    4   -0.003395    0.000032
   -5    0    2    8    4    0.001565    0.000002
   -5    0    2    1    5    0.000622    0.000003
   -5    0    2    2    5   -0.001336   -0.000002
   -5    0    2    3    5   -0.001731   -0.000004
   -5    0    2    4    5    0.001327   -0.000000
   -5    0    2    5    5   -0.001126   -0.000002
   -5    0    2    6    5   -0.000550   -0.000002
   -5    0    2    7    5   -0.000548   -0.000002
   -5    0    2    8    5   -0.000444   -0.000005
   -5    0    2    1    6    0.001331   -0.000000
   -5    0    2    2    6   -0.001224    0.000008
   -5    0    2    3    6   -0.000533    0.000021
   -5    0    2    4    6    0.001813    0.000008
   -5    0    2    5    6   -0.000193    0.000004
   -5    0    2    6    6    0.000925    0.000001
   -5    0    2    7    6   -0.002021    0.000014
   -5    0    2    8    6   -0.000816    0.000012
   -5    0    2    1    7    0.001731    0.000004
   -5    0    2    2    7   -0.000532   -0.000012
   -5    0    2    3    7   -0.003701   -0.000037
   -5    0    2    4    7    0.000535    0.000013
   -5    0    2    5    7   -0.000873    0.000006
   -5    0    2    6    7   -0.001796   -0.000023
   -5    0    2    7    7   -0.000672    0.000022
   -5    0    2    8    7   -0.001237   -0.000028
   -5    0    2    1    8   -0.001330   -0.000001
   -5    0    2    2    8    0.001824    0.000007
   -5    0    2    3    8    0.000536   -0.000023
   -5    0    2    4    8   -0.001241    0.000009
   -5    0    2    5    8    0.000648   -0.000000
   -5    0    2    6    8    0.000032    0.000009
   -5    0    2    7    8    0.001271   -0.000008
   -5    0    2    8    8    0.001064   -0.000024
   -5    0    3    1    1   -0.001128   -0.000003
   -5    0    3    2    1    0.000198   -0.000000
   -5    0    3    3    1    0.000641    0.000003
   -5    0    3    4    1   -0.000867    0.000008
   -5    0    3    5    1   -0.000948   -0.000004
   -5    0    3    6    1   -0.002149    0.000001
   -5    0    3    7    1    0.000194    0.000009
   -5    0    3    8    1    0.001862    0.000000
   -5    0    3    1    2    0.000543    0.000001
   -5    0    3    2    2    0.000914   -0.000025
   -5    0    3    3    2   -0.000042   -0.000012
   -5    0    3    4    2    0.001798    0.000003
   -5    0    3    5    2    0.002152    0.000008
   -5    0    3    6    2   -0.000316   -0.000013
   -5    0    3    7    2    0.000616   -0.000019
   -5    0    3    8    2   -0.001395   -0.000005
   -5    0    3    1    3   -0.000428   -0.000007
   -5    0    3    2    3    0.000830   -0.000014
   -5    0    3    3    3    0.001054   -0.000004
   -5    0    3    4    3   -0.001246   -0.000025
   -5    0    3    5    3   -0.000192   -0.000005
   -5    0    3    6    3    0.000621    0.000011
   -5    0    3    7    3    0.000237   -0.000036
   -5    0    3    8    3    0.002209   -0.000018
   -5    0    3    1    4   -0.000542   -0.000003
   -5    0    3    2    4    0.002017   -0.000000
   -5    0    3    3    4    0.001276   -0.000007
   -5    0    3    4    4   -0.000650    0.000026
   -5    0    3    5    4   -0.001867   -0.000004
   -5    0    3    6    4   -0.001353   -0.000001
   -5    0    3    7    4    0.002203    0.000032
   -5    0    3    8    4    0.003495   -0.000012
   -5    0    3    1    5    0.000028    0.000001
   -5    0    3    2    5   -0.000110    0.000002
   -5    0    3    3    5    0.000232   -0.000005
   -5    0    3    4    5   -0.000238    0.000000
   -5    0    3    5    5   -0.001125    0.000000
   -5    0    3    6    5   -0.000547   -0.000000
   -5    0    3    7    5    0.000430   -0.000007
   -5    0    3    8    5    0.000550    0.000004
   -5    0    3    1    6    0.000114   -0.000002
   -5    0    3    2    6    0.000524   -0.000013
   -5    0    3    3    6   -0.000264    0.000002
   -5    0    3    4    6    0.000284    0.000001
   -5    0    3    5    6   -0.000197    0.000003
   -5    0    3    6    6    0.000953    0.000004
   -5    0    3    7    6    0.000828   -0.000021
   -5    0    3    8    6    0.002019   -0.000001
   -5    0    3    1    7   -0.000233   -0.000000
   -5    0    3    2    7   -0.000263   -0.000006
   -5    0    3    3    7   -0.000040   -0.000011
   -5    0    3    4    7    0.000632    0.000011
   -5    0    3    5    7   -0.000642    0.000004
   -5    0    3    6    7   -0.000046   -0.000004
   -5    0    3    7    7    0.001056    0.000014
   -5    0    3    8    7    0.001278   -0.000023
   -5    0    3    1    8    0.000239   -0.000004
   -5    0    3    2    8    0.000245    0.000000
   -5    0    3    3    8    0.000632   -0.000022
   -5    0    3    4    8   -0.000043   -0.000012
   -5    0    3    5    8    0.000870    0.000001
   -5    0    3    6    8    0.001803   -0.000000
   -5    0    3    7    8   -0.001246   -0.000009
   -5    0    3    8    8   -0.000694   -0.000025
   -5    0    4    1    1    0.000820   -0.000004
   -5    0    4    2    1    0.001251   -0.000000
   -5    0    4    3    1    0.001245   -0.000000
   -5    0    4    4    1    0.002323    0.000009
   -5    0    4    5    1    0.002688   -0.000001
   -5    0    4    6    1    0.000004    0.000004
   -5    0    4    7    1   -0.000007   -0.000000
   -5    0    4    8    1   -0.002573   -0.000008
   -5    0    4    1    2    0.000111    0.000001
   -5    0    4    2    2    0.001671    0.000024
   -5    0    4    3    2   -0.003223    0.000017
   -5    0    4    4    2   -0.000300   -0.000016
   -5    0    4    5    2   -0.000004    0.000001
   -5    0    4    6    2    0.001178   -0.000009
   -5    0    4    7    2   -0.001981    0.000027
   -5    0    4    8    2    0.000005    0.000005
   -5    0    4    1    3    0.000121   -0.000004
   -5    0    4    2    3   -0.003235    0.000019
   -5    0    4    3    3    0.001660   -0.000032
   -5    0    4    4    3   -0.000311   -0.000020
   -5    0    4    5    3    0.000007   -0.000003
   -5    0    4    6    3   -0.001984    0.000014
   -5    0    4    7    3    0.001167   -0.000028
   -5    0    4    8    3   -0.000002   -0.000025
   -5    0    4    1    4    0.003238    0.000000
   -5    0    4    2    4   -0.000552   -0.000015
   -5    0    4    3    4   -0.000542   -0.000019
   -5    0    4    4    4    0.002699    0.000020
   -5    0    4    5    4    0.002585    0.000007
   -5    0    4    6    4    0.000004   -0.000002
   -5    0    4    7    4   -0.000002    0.000028
   -5    0    4    8    4   -0.004802   -0.000048
   -5    0    4    1    5    0.000624    0.000005
   -5    0    4    2    5   -0.001331    0.000005
   -5    0    4    3    5   -0.001336   -0.000001
   -5    0    4    4    5    0.001729   -0.000001
   -5    0    4    5    5    0.000814    0.000000
   -5    0    4    6    5   -0.000113    0.000003
   -5    0    4    7    5   -0.000116   -0.000003
   -5    0    4    8    5   -0.003243    0.000007
   -5    0    4    1    6    0.001326    0.000004
   -5    0    4    2    6   -0.001237    0.000006
   -5    0    4    3    6   -0.001828   -0.000022
   -5    0    4    4    6    0.000524   -0.000006
   -5    0    4    5    6   -0.001247    0.000002
   -5    0    4    6    6    0.001654   -0.000005
   -5    0    4    7    6   -0.003227    0.000002
   -5    0    4    8    6   -0.000559   -0.000021
   -5    0    4    1    7    0.001336   -0.000004
   -5    0    4    2    7   -0.001831    0.000014
   -5    0    4    3    7   -0.001229   -0.000005
   -5    0    4    4    7    0.000545    0.000011
   -5    0    4    5    7   -0.001250    0.000001
   -5    0    4    6    7   -0.003216    0.000024
   -5    0    4    7    7    0.001659    0.000039
   -5    0    4    8    7   -0.000543   -0.000027
   -5    0    4    1    8   -0.001727   -0.000003
   -5    0    4    2    8    0.000554   -0.000001
   -5    0    4    3    8    0.000536   -0.000017
   -5    0    4    4    8   -0.003705   -0.000018
   -5    0    4    5    8   -0.002327   -0.000008
   -5    0    4    6    8   -0.000291   -0.000020
   -5    0    4    7    8   -0.000309   -0.000005
   -5    0    4    8    8    0.002718   -0.000022
   -5    1    0    1    1    0.000819   -0.000006
   -5    1    0    2    1   -0.001247    0.000000
   -5    1    0    3    1   -0.002321   -0.000011
   -5    1    0    4    1    0.001250    0.000003
   -5    1    0    5    1   -0.000948   -0.000004
   -5    1    0    6    1   -0.000186   -0.000004
   -5    1    0    7    1   -0.001866    0.000001
   -5    1    0    8    1   -0.002152   -0.000002
   -5    1    0    1    2   -0.000120    0.000004
   -5    1    0    2    2    0.001675   -0.000013
   -5    1    0    3    2   -0.000304   -0.000021
   -5    1    0    4    2    0.003224   -0.000021
   -5    1    0    5    2    0.000180    0.000007
   -5    1    0    6    2    0.000244   -0.000039
   -5    1    0    7    2    0.002202   -0.000018
   -5    1    0    8    2   -0.000613    0.000007
   -5    1    0    1    3   -0.003243    0.000001
   -5    1    0    2    3   -0.000546   -0.000016
   -5    1    0    3    3    0.002707    0.000042
   -5    1    0    4    3    0.000547    0.000015
   -5    1    0    5    3    0.001866    0.000005
   -5    1    0    6    3    0.002207    0.000030
   -5    1    0    7    3    0.003485   -0.000005
   -5    1    0    8    3    0.001369    0.000021
   -5    1    0    1    4    0.000115   -0.000001
   -5    1    0    2    4    0.003226   -0.000021
   -5    1    0    3    4    0.000305    0.000018
   -5    1    0    4    4    0.001646   -0.000015
   -5    1    0    5    4    0.002151    0.000006
   -5    1    0    6    4   -0.000623   -0.000002
   -5    1    0    7    4    0.001374   -0.000012
   -5    1    0    8    4   -0.000316   -0.000019
   -5    1    0    1    5   -0.002191    0.000005
   -5    1    0    2    5    0.001101    0.000005
   -5    1    0    3    5    0.001670   -0.000004
   -5    1    0    4    5    0.000317    0.000002
   -5    1    0    5    5    0.000814    0.000001
   -5    1    0    6    5    0.000118    0.000004
   -5    1    0    7    5    0.003245   -0.000009
   -5    1    0    8    5   -0.000115   -0.000001
   -5    1    0    1    6   -0.001099    0.000003
   -5    1    0    2    6    0.000639   -0.000036
   -5    1    0    3    6    0.001218    0.000023
   -5    1    0    4    6    0.000921   -0.000009
   -5    1    0    5    6    0.001248   -0.000002
   -5    1    0    6    6    0.001656    0.000029
   -5    1    0    7    6   -0.000547   -0.000027
   -5    1    0    8    6    0.003207   -0.000010
   -5    1    0    1    7   -0.001669    0.000002
   -5    1    0    2    7    0.001224   -0.000019
   -5    1    0    3    7    0.001963    0.000023
   -5    1    0    4    7    0.000531   -0.000030
   -5    1    0    5    7    0.002321    0.000008
   -5    1    0    6    7   -0.000304   -0.000007
   -5    1    0    7    7    0.002705   -0.000046
   -5    1    0    8    7    0.000305    0.000011
   -5    1    0    1    8   -0.000320    0.000002
   -5    1    0    2    8    0.000951   -0.000004
   -5    1    0    3    8    0.000534    0.000026
   -5    1    0    4    8    0.000579    0.000004
   -5    1    0    5    8   -0.001254    0.000005
   -5    1    0    6    8    0.003238   -0.000011
   -5    1    0    7    8    0.000545    0.000028
   -5    1    0    8    8    0.001664    0.000030
   -5    1    1    1    1   -0.002240    0.000003
   -5    1    1    2    1    0.001219    0.000002
   -5    1    1    3    1   -0.001276   -0.000010
   -5    1    1    4    1    0.001219    0.000000
   -5    1    1    5    1    0.000328   -0.000007
   -5    1    1    6    1    0.000730    0.000003
   -5    1    1    7    1    0.000655   -0.000000
   -5    1    1    8    1    0.000728   -0.000002
   -5    1    1    1    2    0.000352    0.000000
   -5    1    1    2    2   -0.001437    0.000011
   -5    1    1    3    2   -0.001876    0.000018
   -5    1    1    4    2    0.001134    0.000021
   -5    1    1    5    2   -0.000727   -0.000000
   -5    1    1    6    2    0.002077    0.000031
   -5    1    1    7    2   -0.000810    0.000011
   -5    1    1    8    2    0.001319    0.000003
   -5    1    1    1    3    0.004732   -0.000004
   -5    1    1    2    3   -0.001013    0.000013
   -5    1    1    3    3   -0.001708    0.000003
   -5    1    1    4    3   -0.001020    0.000017
   -5    1    1    5    3   -0.000656   -0.000002
   -5    1    1    6    3   -0.000819   -0.000004
   -5    1    1    7    3   -0.005144    0.000012
   -5    1    1    8    3   -0.000818    0.000014
   -5    1    1    1    4    0.000353    0.000008
   -5    1    1    2    4    0.001134    0.000024
   -5    1    1    3    4   -0.001875    0.000007
   -5    1    1    4    4   -0.001460   -0.000015
   -5    1    1    5    4   -0.000730    0.000004
   -5    1    1    6    4    0.001283    0.000006
   -5    1    1    7    4   -0.000821    0.000001
   -5    1    1    8    4    0.002105    0.000005
   -5    1    1    1    5    0.003829    0.000004
   -5    1    1    2    5    0.000002    0.000004
   -5    1    1    3    5   -0.003803    0.000003
   -5    1    1    4    5   -0.000000   -0.000002
   -5    1    1    5    5   -0.002243    0.000003
   -5    1    1    6    5   -0.000355   -0.000003
   -5    1    1    7    5   -0.004735    0.000004
   -5    1    1    8    5   -0.000352   -0.000002
   -5    1    1    1    6   -0.000002    0.000003
   -5    1    1    2    6    0.000022    0.000042
   -5    1    1    3    6    0.000001   -0.000027
   -5    1    1    4    6   -0.002649   -0.000002
   -5    1    1    5    6   -0.001222   -0.000000
   -5    1    1    6    6   -0.001464   -0.000017
   -5    1    1    7    6   -0.001014    0.000011
   -5    1    1    8    6    0.001156    0.000020
   -5    1    1    1    7    0.003803   -0.000005
   -5    1    1    2    7    0.000003    0.000025
   -5    1    1    3    7   -0.002474    0.000041
   -5    1    1    4    7   -0.000003   -0.000026
   -5    1    1    5    7    0.001277    0.000005
   -5    1    1    6    7   -0.001877    0.000021
   -5    1    1    7    7   -0.001707   -0.000005
   -5    1    1    8    7   -0.001873    0.000003
   -5    1    1    1    8    0.000000   -0.000001
   -5    1    1    2    8   -0.002632   -0.000003
   -5    1    1    3    8   -0.000002    0.000027
   -5    1    1    4    8   -0.000002    0.000043
   -5    1    1    5    8   -0.001217    0.000003
   -5    1    1    6    8    0.001117    0.000015
   -5    1    1    7    8   -0.001014    0.000030
   -5    1    1    8    8   -0.001437    0.000019
   -5    1    2    1    1   -0.001002    0.000001
   -5    1    2    2    1   -0.001549   -0.000001
   -5    1    2    3    1   -0.000401   -0.000003
   -5    1    2    4    1    0.000399   -0.000004
   -5    1    2    5    1    0.000328   -0.000008
   -5    1    2    6    1    0.000729   -0.000004
   -5    1    2    7    1   -0.000726    0.000002
   -5    1    2    8    1   -0.000661   -0.000000
   -5    1    2    1    2    0.000437    0.000003
   -5    1    2    2    2   -0.000380    0.000004
   -5    1    2    3    2    0.000382    0.000004
   -5    1    2    4    2   -0.000378   -0.000001
   -5    1    2    5    2   -0.000726   -0.000001
   -5    1    2    6    2    0.002096    0.000011
   -5    1    2    7    2   -0.001308    0.000017
   -5    1    2    8    2    0.000793   -0.000003
   -5    1    2    1    3    0.000128    0.000007
   -5    1    2    2    3    0.003504    0.000002
   -5    1    2    3    3    0.000525    0.000016
   -5    1    2    4    3    0.000892    0.000027
   -5    1    2    5    3    0.000728    0.000005
   -5    1    2    6    3   -0.001310   -0.000027
   -5    1    2    7    3    0.002090    0.000036
   -5    1    2    8    3   -0.000813    0.000008
   -5    1    2    1    4   -0.000125   -0.000003
   -5    1    2    2    4   -0.003509    0.000006
   -5    1    2    3    4    0.000893    0.000011
   -5    1    2    4    4    0.000556   -0.000019
   -5    1    2    5    4    0.000659    0.000003
   -5    1    2    6    4    0.000848   -0.000007
   -5    1    2    7    4   -0.000819    0.000002
   -5    1    2    8    4   -0.005144    0.000001
   -5    1    2    1    5   -0.001168   -0.000003
   -5    1    2    2    5    0.000388   -0.000001
   -5    1    2    3    5    0.000570    0.000004
   -5    1    2    4    5    0.000546   -0.000000
   -5    1    2    5    5   -0.000999    0.000002
   -5    1    2    6    5   -0.000436    0.000006
   -5    1    2    7    5   -0.000127   -0.000001
   -5    1    2    8    5    0.000132   -0.000000
   -5    1    2    1    6   -0.000386    0.000003
   -5    1    2    2    6   -0.000104   -0.000011
   -5    1    2    3    6    0.000925    0.000020
   -5    1    2    4    6    0.001391    0.000013
   -5    1    2    5    6    0.001546    0.000004
   -5    1    2    6    6   -0.000327   -0.000000
   -5    1    2    7    6    0.003500    0.000022
   -5    1    2    8    6   -0.003506   -0.000006
   -5    1    2    1    7   -0.000570    0.000001
   -5    1    2    2    7    0.000919   -0.000001
   -5    1    2    3    7    0.001395   -0.000004
   -5    1    2    4    7   -0.000299   -0.000020
   -5    1    2    5    7    0.000402    0.000001
   -5    1    2    6    7    0.000378   -0.000016
   -5    1    2    7    7    0.000524   -0.000017
   -5    1    2    8    7    0.000895    0.000008
   -5    1    2    1    8   -0.000541    0.000001
   -5    1    2    2    8    0.001341    0.000002
   -5    1    2    3    8   -0.000298    0.000025
   -5    1    2    4    8    0.000010    0.000018
   -5    1    2    5    8   -0.000398    0.000004
   -5    1    2    6    8   -0.000380   -0.000009
   -5    1    2    7    8    0.000889    0.000032
   -5    1    2    8    8    0.000507    0.000017
   -5    1    3    1    1   -0.002238    0.000007
   -5    1    3    2    1    0.001220   -0.000001
   -5    1    3    3    1   -0.001213    0.000002
   -5    1    3    4    1    0.001265    0.000003
   -5    1    3    5    1   -0.000947   -0.000005
   -5    1    3    6    1   -0.000194   -0.000004
   -5    1    3    7    1    0.002153    0.000002
   -5    1    3    8    1    0.001871    0.000006
   -5    1    3    1    2    0.000366   -0.000001
   -5    1    3    2    2   -0.001436   -0.000023
   -5    1    3    3    2   -0.001134   -0.000020
   -5    1    3    4    2    0.001877   -0.000018
   -5    1    3    5    2    0.000192    0.000004
   -5    1    3    6    2    0.000253   -0.000041
   -5    1    3    7    2    0.000615   -0.000027
   -5    1    3    8    2   -0.002196   -0.000007
   -5    1    3    1    3   -0.000356   -0.000000
   -5    1    3    2    3   -0.001138   -0.000016
   -5    1    3    3    3   -0.001448    0.000040
   -5    1    3    4    3   -0.001878    0.000020
   -5    1    3    5    3   -0.002154   -0.000001
   -5    1    3    6    3    0.000614    0.000019
   -5    1    3    7    3   -0.000320    0.000002
   -5    1    3    8    3    0.001381    0.000007
   -5    1    3    1    4   -0.004730    0.000002
   -5    1    3    2    4    0.001016   -0.000016
   -5    1    3    3    4   -0.001014    0.000015
   -5    1    3    4    4   -0.001727   -0.000024
   -5    1    3    5    4   -0.001860    0.000003
   -5    1    3    6    4   -0.002207   -0.000006
   -5    1    3    7    4    0.001377   -0.000005
   -5    1    3    8    4    0.003481   -0.000021
   -5    1    3    1    5   -0.001166   -0.000003
   -5    1    3    2    5    0.000378   -0.000004
   -5    1    3    3    5   -0.000548   -0.000006
   -5    1    3    4    5   -0.000571   -0.000004
   -5    1    3    5    5   -0.002244    0.000000
   -5    1    3    6    5   -0.000367   -0.000010
   -5    1    3    7    5    0.000359    0.000005
[...]
    6   -3    0    2    7    0.000169   -0.000004
    6   -3    0    3    7    0.000291   -0.000016
    6   -3    0    4    7   -0.002563    0.000011
    6   -3    0    5    7   -0.000446    0.000001
    6   -3    0    6    7   -0.000606   -0.000021
    6   -3    0    7    7    0.000324   -0.000013
    6   -3    0    8    7    0.000612    0.000020
    6   -3    0    1    8    0.000198    0.000002
    6   -3    0    2    8    0.000148    0.000007
    6   -3    0    3    8   -0.002565   -0.000003
    6   -3    0    4    8    0.000302   -0.000018
    6   -3    0    5    8   -0.000443    0.000005
    6   -3    0    6    8   -0.000596   -0.000006
    6   -3    0    7    8    0.000597   -0.000008
    6   -3    0    8    8    0.000308    0.000014
    6   -2   -3    1    1   -0.000802    0.000002
    6   -2   -3    2    1    0.001176   -0.000000
    6   -2   -3    3    1    0.001177    0.000002
    6   -2   -3    4    1   -0.000429   -0.000001
    6   -2   -3    5    1   -0.000201   -0.000001
    6   -2   -3    6    1   -0.000003   -0.000002
    6   -2   -3    7    1    0.000004    0.000005
    6   -2   -3    8    1   -0.000276    0.000000
    6   -2   -3    1    2   -0.000430   -0.000003
    6   -2   -3    2    2    0.000128    0.000004
    6   -2   -3    3    2   -0.000148    0.000002
    6   -2   -3    4    2    0.000803   -0.000019
    6   -2   -3    5    2    0.000003   -0.000002
    6   -2   -3    6    2    0.000237   -0.000017
    6   -2   -3    7    2    0.002417    0.000017
    6   -2   -3    8    2   -0.000003   -0.000005
    6   -2   -3    1    3   -0.000433   -0.000002
    6   -2   -3    2    3   -0.000136   -0.000001
    6   -2   -3    3    3    0.000121   -0.000017
    6   -2   -3    4    3    0.000805   -0.000020
    6   -2   -3    5    3   -0.000004    0.000005
    6   -2   -3    6    3    0.002413   -0.000018
    6   -2   -3    7    3    0.000226   -0.000001
    6   -2   -3    8    3    0.000002   -0.000021
    6   -2   -3    1    4    0.000538    0.000000
    6   -2   -3    2    4    0.000200   -0.000016
    6   -2   -3    3    4    0.000198   -0.000011
    6   -2   -3    4    4    0.001099    0.000016
    6   -2   -3    5    4    0.000272    0.000005
    6   -2   -3    6    4   -0.000004    0.000003
    6   -2   -3    7    4   -0.000000    0.000023
    6   -2   -3    8    4    0.001161   -0.000043
    6   -2   -3    1    5    0.001662   -0.000003
    6   -2   -3    2    5    0.000194   -0.000005
    6   -2   -3    3    5    0.000205    0.000004
    6   -2   -3    4    5   -0.000105   -0.000002
    6   -2   -3    5    5   -0.000799   -0.000002
    6   -2   -3    6    5    0.000425   -0.000002
    6   -2   -3    7    5    0.000434    0.000000
    6   -2   -3    8    5   -0.000539    0.000002
    6   -2   -3    1    6   -0.000196   -0.000007
    6   -2   -3    2    6    0.000286   -0.000010
    6   -2   -3    3    6   -0.002562    0.000015
    6   -2   -3    4    6   -0.000179   -0.000010
    6   -2   -3    5    6   -0.001176   -0.000001
    6   -2   -3    6    6    0.000110   -0.000005
    6   -2   -3    7    6   -0.000132    0.000021
    6   -2   -3    8    6    0.000186   -0.000014
    6   -2   -3    1    7   -0.000205    0.000003
    6   -2   -3    2    7   -0.002564   -0.000007
    6   -2   -3    3    7    0.000298   -0.000025
    6   -2   -3    4    7   -0.000167    0.000007
    6   -2   -3    5    7   -0.001181    0.000001
    6   -2   -3    6    7   -0.000143   -0.000017
    6   -2   -3    7    7    0.000119    0.000028
    6   -2   -3    8    7    0.000202   -0.000025
    6   -2   -3    1    8    0.000102   -0.000003
    6   -2   -3    2    8   -0.000145   -0.000005
    6   -2   -3    3    8   -0.000173   -0.000019
    6   -2   -3    4    8    0.000593   -0.000011
    6   -2   -3    5    8    0.000422    0.000010
    6   -2   -3    6    8    0.000819   -0.000015
    6   -2   -3    7    8    0.000807   -0.000009
    6   -2   -3    8    8    0.001124   -0.000021
    6   -2   -2    1    1    0.001123   -0.000008
    6   -2   -2    2    1    0.000827   -0.000003
    6   -2   -2    3    1   -0.000829    0.000001
    6   -2   -2    4    1    0.000831    0.000003
    6   -2   -2    5    1   -0.000201   -0.000001
    6   -2   -2    6    1    0.000002   -0.000001
    6   -2   -2    7    1    0.000268   -0.000002
    6   -2   -2    8    1    0.000001    0.000003
    6   -2   -2    1    2    0.001484   -0.000000
    6   -2   -2    2    2   -0.000093   -0.000026
    6   -2   -2    3    2   -0.001114   -0.000020
    6   -2   -2    4    2    0.001114    0.000015
    6   -2   -2    5    2   -0.000002   -0.000001
    6   -2   -2    6    2    0.000224   -0.000009
    6   -2   -2    7    2   -0.000002   -0.000029
    6   -2   -2    8    2   -0.002391    0.000001
    6   -2   -2    1    3   -0.001480   -0.000001
    6   -2   -2    2    3   -0.001110   -0.000018
    6   -2   -2    3    3   -0.000108   -0.000004
    6   -2   -2    4    3   -0.001113   -0.000016
    6   -2   -2    5    3   -0.000268   -0.000006
    6   -2   -2    6    3   -0.000004    0.000028
    6   -2   -2    7    3    0.001171   -0.000043
    6   -2   -2    8    3    0.000001   -0.000028
    6   -2   -2    1    4    0.001478    0.000000
    6   -2   -2    2    4    0.001108    0.000019
    6   -2   -2    3    4   -0.001107   -0.000014
    6   -2   -2    4    4   -0.000122    0.000015
    6   -2   -2    5    4   -0.000001    0.000003
    6   -2   -2    6    4   -0.002428   -0.000001
    6   -2   -2    7    4   -0.000001    0.000029
    6   -2   -2    8    4    0.000231   -0.000009
    6   -2   -2    1    5   -0.000034    0.000003
    6   -2   -2    2    5    0.001178   -0.000002
    6   -2   -2    3    5   -0.000470    0.000007
    6   -2   -2    4    5    0.001188   -0.000004
    6   -2   -2    5    5    0.001118   -0.000003
    6   -2   -2    6    5   -0.001479    0.000007
    6   -2   -2    7    5    0.001478   -0.000006
    6   -2   -2    8    5   -0.001481    0.000003
    6   -2   -2    1    6   -0.001184    0.000005
    6   -2   -2    2    6   -0.001706    0.000001
    6   -2   -2    3    6    0.000648   -0.000003
    6   -2   -2    4    6   -0.001237    0.000006
    6   -2   -2    5    6   -0.000827   -0.000005
    6   -2   -2    6    6   -0.000118    0.000012
    6   -2   -2    7    6   -0.001110   -0.000025
    6   -2   -2    8    6    0.001132    0.000016
    6   -2   -2    1    7    0.000470    0.000002
    6   -2   -2    2    7    0.000643   -0.000019
    6   -2   -2    3    7    0.000194   -0.000006
    6   -2   -2    4    7    0.000643   -0.000000
    6   -2   -2    5    7    0.000832    0.000002
    6   -2   -2    6    7   -0.001115   -0.000003
    6   -2   -2    7    7   -0.000109   -0.000007
    6   -2   -2    8    7   -0.001112   -0.000028
    6   -2   -2    1    8   -0.001184    0.000005
    6   -2   -2    2    8   -0.001232   -0.000004
    6   -2   -2    3    8    0.000645   -0.000021
    6   -2   -2    4    8   -0.001717    0.000015
    6   -2   -2    5    8   -0.000836    0.000002
    6   -2   -2    6    8    0.001096    0.000014
    6   -2   -2    7    8   -0.001119   -0.000006
    6   -2   -2    8    8   -0.000101   -0.000023
    6   -2   -1    1    1   -0.000802    0.000003
    6   -2   -1    2    1    0.001187    0.000010
    6   -2   -1    3    1    0.000435    0.000015
    6   -2   -1    4    1   -0.001183   -0.000005
    6   -2   -1    5    1   -0.001167    0.000003
    6   -2   -1    6    1    0.000390    0.000002
    6   -2   -1    7    1   -0.000565    0.000010
    6   -2   -1    8    1    0.000545    0.000004
    6   -2   -1    1    2   -0.000433   -0.000001
    6   -2   -1    2    2    0.000096    0.000017
    6   -2   -1    3    2   -0.000804    0.000016
    6   -2   -1    4    2    0.000135   -0.000004
    6   -2   -1    5    2   -0.000393    0.000002
    6   -2   -1    6    2   -0.000100    0.000028
    6   -2   -1    7    2   -0.000928    0.000018
    6   -2   -1    8    2    0.001338   -0.000005
    6   -2   -1    1    3   -0.000546    0.000011
    6   -2   -1    2    3   -0.000201    0.000018
    6   -2   -1    3    3    0.001111   -0.000046
    6   -2   -1    4    3    0.000198   -0.000020
    6   -2   -1    5    3    0.000565    0.000001
    6   -2   -1    6    3   -0.000932   -0.000012
    6   -2   -1    7    3    0.001396   -0.000022
    6   -2   -1    8    3    0.000300   -0.000022
    6   -2   -1    1    4    0.000432    0.000001
    6   -2   -1    2    4    0.000147   -0.000003
    6   -2   -1    3    4    0.000804   -0.000019
    6   -2   -1    4    4    0.000143    0.000022
    6   -2   -1    5    4   -0.000550    0.000005
    6   -2   -1    6    4    0.001387   -0.000003
    6   -2   -1    7    4    0.000297    0.000020
    6   -2   -1    8    4    0.000007   -0.000010
    6   -2   -1    1    5   -0.000034    0.000003
    6   -2   -1    2    5    0.001191   -0.000002
    6   -2   -1    3    5   -0.001182    0.000001
    6   -2   -1    4    5    0.000475   -0.000009
    6   -2   -1    5    5   -0.000799   -0.000002
    6   -2   -1    6    5    0.000433    0.000000
    6   -2   -1    7    5    0.000546   -0.000003
    6   -2   -1    8    5   -0.000431   -0.000000
    6   -2   -1    1    6   -0.001188    0.000009
    6   -2   -1    2    6   -0.001706    0.000009
    6   -2   -1    3    6    0.001240   -0.000022
    6   -2   -1    4    6   -0.000625    0.000013
    6   -2   -1    5    6   -0.001191    0.000006
    6   -2   -1    6    6    0.000138   -0.000013
    6   -2   -1    7    6   -0.000203    0.000006
    6   -2   -1    8    6    0.000144   -0.000000
    6   -2   -1    1    7    0.001182   -0.000004
    6   -2   -1    2    7    0.001244    0.000020
    6   -2   -1    3    7   -0.001707   -0.000002
    6   -2   -1    4    7    0.000650   -0.000004
    6   -2   -1    5    7   -0.000435    0.000003
    6   -2   -1    6    7   -0.000801    0.000024
    6   -2   -1    7    7    0.001113    0.000032
    6   -2   -1    8    7    0.000807   -0.000021
    6   -2   -1    1    8   -0.000475   -0.000001
    6   -2   -1    2    8   -0.000663    0.000010
    6   -2   -1    3    8    0.000646   -0.000018
    6   -2   -1    4    8    0.000186    0.000003
    6   -2   -1    5    8    0.001181   -0.000001
    6   -2   -1    6    8    0.000133    0.000000
    6   -2   -1    7    8    0.000202   -0.000004
    6   -2   -1    8    8    0.000102   -0.000018
    6   -1   -3    1    1   -0.000801    0.000003
    6   -1   -3    2    1   -0.001179   -0.000003
    6   -1   -3    3    1   -0.001177   -0.000005
    6   -1   -3    4    1   -0.000432   -0.000008
    6   -1   -3    5    1   -0.002246   -0.000004
    6   -1   -3    6    1    0.000439    0.000002
    6   -1   -3    7    1    0.000431   -0.000011
    6   -1   -3    8    1   -0.000438   -0.000001
    6   -1   -3    1    2    0.000433    0.000003
    6   -1   -3    2    2    0.000130    0.000001
    6   -1   -3    3    2   -0.000131    0.000005
    6   -1   -3    4    2   -0.000801    0.000015
    6   -1   -3    5    2   -0.000440    0.000010
    6   -1   -3    6    2   -0.001120    0.000020
    6   -1   -3    7    2    0.000371    0.000015
    6   -1   -3    8    2   -0.000352    0.000003
    6   -1   -3    1    3    0.000428    0.000002
    6   -1   -3    2    3   -0.000153   -0.000002
    6   -1   -3    3    3    0.000119    0.000019
    6   -1   -3    4    3   -0.000805    0.000016
    6   -1   -3    5    3   -0.000430    0.000000
    6   -1   -3    6    3    0.000374   -0.000018
    6   -1   -3    7    3   -0.001121    0.000040
    6   -1   -3    8    3   -0.000373    0.000016
    6   -1   -3    1    4    0.000542   -0.000006
    6   -1   -3    2    4   -0.000202    0.000013
    6   -1   -3    3    4   -0.000197    0.000017
    6   -1   -3    4    4    0.001099   -0.000024
    6   -1   -3    5    4    0.000435   -0.000009
    6   -1   -3    6    4   -0.000385    0.000000
    6   -1   -3    7    4   -0.000372   -0.000013
    6   -1   -3    8    4   -0.001108    0.000020
    6   -1   -3    1    5   -0.001392    0.000003
    6   -1   -3    2    5    0.000007    0.000003
    6   -1   -3    3    5   -0.000007   -0.000001
    6   -1   -3    4    5   -0.000859   -0.000004
    6   -1   -3    5    5   -0.000799   -0.000003
    6   -1   -3    6    5   -0.000428    0.000002
    6   -1   -3    7    5   -0.000428    0.000000
    6   -1   -3    8    5   -0.000543    0.000004
    6   -1   -3    1    6   -0.000007    0.000001
    6   -1   -3    2    6    0.002688    0.000005
    6   -1   -3    3    6   -0.000064    0.000022
    6   -1   -3    4    6   -0.000006    0.000000
    6   -1   -3    5    6    0.001178   -0.000001
    6   -1   -3    6    6    0.000112   -0.000001
    6   -1   -3    7    6   -0.000149    0.000021
    6   -1   -3    8    6   -0.000189    0.000019
    6   -1   -3    1    7    0.000006   -0.000006
    6   -1   -3    2    7   -0.000064   -0.000001
    6   -1   -3    3    7    0.002689   -0.000005
    6   -1   -3    4    7    0.000004   -0.000022
    6   -1   -3    5    7    0.001181   -0.000001
    6   -1   -3    6    7   -0.000126   -0.000018
    6   -1   -3    7    7    0.000119   -0.000010
    6   -1   -3    8    7   -0.000201    0.000005
    6   -1   -3    1    8    0.000868   -0.000000
    6   -1   -3    2    8   -0.000006   -0.000003
    6   -1   -3    3    8    0.000004    0.000019
    6   -1   -3    4    8   -0.002655    0.000034
    6   -1   -3    5    8    0.000426    0.000003
    6   -1   -3    6    8   -0.000818    0.000017
    6   -1   -3    7    8   -0.000809    0.000026
    6   -1   -3    8    8    0.001122    0.000013
    6   -1   -2    1    1   -0.000802    0.000000
    6   -1   -2    2    1   -0.001179   -0.000001
    6   -1   -2    3    1    0.000423   -0.000004
    6   -1   -2    4    1    0.001175   -0.000003
    6   -1   -2    5    1   -0.001167    0.000003
    6   -1   -2    6    1    0.000540   -0.000004
    6   -1   -2    7    1   -0.000571   -0.000001
    6   -1   -2    8    1    0.000379   -0.000000
    6   -1   -2    1    2    0.000434    0.000003
    6   -1   -2    2    2    0.000096   -0.000016
    6   -1   -2    3    2    0.000798   -0.000020
    6   -1   -2    4    2    0.000142    0.000002
    6   -1   -2    5    2   -0.000536   -0.000004
    6   -1   -2    6    2   -0.000006   -0.000018
    6   -1   -2    7    2    0.000301   -0.000017
    6   -1   -2    8    2    0.001343   -0.000016
    6   -1   -2    1    3   -0.000534   -0.000005
    6   -1   -2    2    3    0.000205   -0.000011
    6   -1   -2    3    3    0.001109    0.000037
    6   -1   -2    4    3   -0.000202    0.000013
    6   -1   -2    5    3    0.000569   -0.000004
    6   -1   -2    6    3    0.000300    0.000023
    6   -1   -2    7    3    0.001400    0.000004
    6   -1   -2    8    3   -0.000923    0.000022
    6   -1   -2    1    4   -0.000432   -0.000004
    6   -1   -2    2    4    0.000141    0.000002
    6   -1   -2    3    4   -0.000799    0.000023
    6   -1   -2    4    4    0.000144   -0.000014
    6   -1   -2    5    4   -0.000376   -0.000004
    6   -1   -2    6    4    0.001391    0.000001
    6   -1   -2    7    4   -0.000918   -0.000003
    6   -1   -2    8    4   -0.000095    0.000011
    6   -1   -2    1    5   -0.000033    0.000003
    6   -1   -2    2    5    0.000467   -0.000005
    6   -1   -2    3    5   -0.001187    0.000005
    6   -1   -2    4    5    0.001180   -0.000002
    6   -1   -2    5    5   -0.000800   -0.000001
    6   -1   -2    6    5   -0.000434    0.000001
    6   -1   -2    7    5    0.000534   -0.000002
    6   -1   -2    8    5    0.000432   -0.000002
    6   -1   -2    1    6   -0.000466   -0.000002
    6   -1   -2    2    6    0.000196   -0.000015
    6   -1   -2    3    6    0.000642   -0.000001
    6   -1   -2    4    6   -0.000626    0.000010
    6   -1   -2    5    6    0.001183   -0.000001
    6   -1   -2    6    6    0.000136    0.000021
    6   -1   -2    7    6    0.000208   -0.000024
    6   -1   -2    8    6    0.000139   -0.000004
    6   -1   -2    1    7    0.001188   -0.000008
    6   -1   -2    2    7    0.000645   -0.000020
    6   -1   -2    3    7   -0.001713    0.000018
    6   -1   -2    4    7    0.001230   -0.000022
    6   -1   -2    5    7   -0.000421   -0.000014
    6   -1   -2    6    7    0.000795   -0.000009
    6   -1   -2    7    7    0.001115   -0.000039
    6   -1   -2    8    7   -0.000801    0.000006
    6   -1   -2    1    8   -0.001185    0.000004
    6   -1   -2    2    8   -0.000671    0.000010
    6   -1   -2    3    8    0.001234    0.000019
    6   -1   -2    4    8   -0.001712    0.000007
    6   -1   -2    5    8   -0.001173   -0.000003
    6   -1   -2    6    8    0.000139   -0.000004
    6   -1   -2    7    8   -0.000206    0.000022
    6   -1   -2    8    8    0.000101    0.000019
    6    0   -3    1    1   -0.000235    0.000002
    6    0   -3    2    1    0.000449    0.000000
    6    0   -3    3    1    0.000442    0.000001
    6    0   -3    4    1   -0.000444    0.000000
    6    0   -3    5    1    0.000029   -0.000001
    6    0   -3    6    1   -0.000235   -0.000003
    6    0   -3    7    1   -0.000231    0.000000
    6    0   -3    8    1   -0.000112   -0.000001
    6    0   -3    1    2    0.000830   -0.000003
    6    0   -3    2    2    0.000305    0.000007
    6    0   -3    3    2    0.000605    0.000009
    6    0   -3    4    2   -0.000600   -0.000007
    6    0   -3    5    2    0.000236    0.000001
    6    0   -3    6    2   -0.000039    0.000011
    6    0   -3    7    2   -0.000636    0.000009
    6    0   -3    8    2    0.000242   -0.000000
    6    0   -3    1    3    0.000834   -0.000003
    6    0   -3    2    3    0.000604    0.000004
    6    0   -3    3    3    0.000326   -0.000000
    6    0   -3    4    3   -0.000603   -0.000005
    6    0   -3    5    3    0.000233    0.000005
    6    0   -3    6    3   -0.000635   -0.000020
    6    0   -3    7    3   -0.000044    0.000011
    6    0   -3    8    3    0.000266   -0.000000
    6    0   -3    1    4   -0.000828    0.000004
    6    0   -3    2    4   -0.000606   -0.000007
    6    0   -3    3    4   -0.000601   -0.000010
    6    0   -3    4    4    0.000344    0.000006
    6    0   -3    5    4    0.000115    0.000003
    6    0   -3    6    4    0.000280   -0.000001
    6    0   -3    7    4    0.000265   -0.000004
    6    0   -3    8    4    0.000521    0.000013
    6    0   -3    1    5    0.001661   -0.000003
    6    0   -3    2    5   -0.000201    0.000000
    6    0   -3    3    5   -0.000197   -0.000001
    6    0   -3    4    5   -0.000111    0.000001
    6    0   -3    5    5   -0.000241    0.000001
    6    0   -3    6    5   -0.000826    0.000002
    6    0   -3    7    5   -0.000832    0.000001
    6    0   -3    8    5    0.000830   -0.000001
    6    0   -3    1    6    0.000203    0.000004
    6    0   -3    2    6    0.000286   -0.000011
    6    0   -3    3    6   -0.002564    0.000008
    6    0   -3    4    6    0.000185    0.000006
    6    0   -3    5    6   -0.000447    0.000004
    6    0   -3    6    6    0.000339   -0.000005
    6    0   -3    7    6    0.000603    0.000019
    6    0   -3    8    6   -0.000604   -0.000007
    6    0   -3    1    7    0.000198    0.000006
    6    0   -3    2    7   -0.002566   -0.000006
    6    0   -3    3    7    0.000302   -0.000013
    6    0   -3    4    7    0.000161    0.000018
    6    0   -3    5    7   -0.000443    0.000007
    6    0   -3    6    7    0.000601   -0.000008
    6    0   -3    7    7    0.000324    0.000019
    6    0   -3    8    7   -0.000605    0.000009
    6    0   -3    1    8    0.000108   -0.000000
    6    0   -3    2    8    0.000150    0.000010
    6    0   -3    3    8    0.000167   -0.000003
    6    0   -3    4    8    0.000589   -0.000022
    6    0   -3    5    8    0.000448   -0.000003
    6    0   -3    6    8   -0.000602   -0.000006
    6    0   -3    7    8   -0.000604   -0.000018
    6    0   -3    8    8    0.000308   -0.000004
