    0    0    1    1
  0.0000000E+00  0.0000000E+00  0.0000000E+00  0.0000000E+00  0.0000000e+00
0.000000000000000E+00
  CAR
  DeepTB System
      0    101     30
