    2    2    1    1
  0.2376593E+02  0.4065993E-09  0.4065993E-09  0.4065993E-09  0.5000000E-15
  1.000000000000000E-004
  CAR 
 unknown system                          
     18    180     16
 
  0.0000000E+00  0.0000000E+00  0.0000000E+00  0.5555556E-02
      1        -11.256415   1.000000
      2        -11.256415   1.000000
      3        -11.256415   1.000000
      4        -11.187826   1.000000
      5        -11.187826   1.000000
      6         -8.907119   1.000000
      7          3.466853   0.990281
      8          3.466855   0.990280
      9          3.466855   0.990280
     10          3.610277   0.042752
     11          7.179522   0.000000
     12          7.179526   0.000000
     13          7.179526   0.000000
     14         10.899148   0.000000
     15         13.463815   0.000000
     16         13.463820   0.000000
 
  0.1724138E-01  0.0000000E+00  0.1724138E-01  0.5555556E-02
      1        -11.256768   1.000000
      2        -11.256298   1.000000
      3        -11.256298   1.000000
      4        -11.187868   1.000000
      5        -11.187793   1.000000
      6         -8.902772   1.000000
      7          3.232251   1.000000
      8          3.452156   0.997045
      9          3.452156   0.997045
     10          3.844220   0.000000
     11          7.162449   0.000000
     12          7.199783   0.000000
     13          7.199786   0.000000
     14         10.926854   0.000000
     15         13.371732   0.000000
     16         13.468490   0.000000
 
  0.3448276E-01  0.0000000E+00  0.3448276E-01  0.5555556E-02
      1        -11.257820   1.000000
      2        -11.255953   1.000000
      3        -11.255953   1.000000
      4        -11.187995   1.000000
      5        -11.187698   1.000000
      6         -8.889719   1.000000
      7          2.938874   1.000000
      8          3.409095   0.999964
      9          3.409096   0.999964
     10          4.135313   0.000000
     11          7.112932   0.000000
     12          7.259517   0.000000
     13          7.259520   0.000000
     14         11.008203   0.000000
     15         13.142017   0.000000
     16         13.482513   0.000000
 
  0.5172414E-01  0.0000000E+00  0.5172414E-01  0.5555556E-02
      1        -11.259541   1.000000
      2        -11.255380   1.000000
      3        -11.255380   1.000000
      4        -11.188210   1.000000
      5        -11.187540   1.000000
      6         -8.868006   1.000000
      7          2.643592   1.000000
      8          3.340515   1.000000
      9          3.340516   1.000000
     10          4.425773   0.000000
     11          7.035584   0.000000
     12          7.355847   0.000000
     13          7.355850   0.000000
     14         11.138322   0.000000
     15         12.845374   0.000000
     16         13.505881   0.000000
 
  0.6896552E-01  0.0000000E+00  0.6896552E-01  0.5555556E-02
      1        -11.261893   1.000000
      2        -11.254589   1.000000
      3        -11.254589   1.000000
      4        -11.188518   1.000000
      5        -11.187323   1.000000
      6         -8.837710   1.000000
      7          2.348974   1.000000
      8          3.250411   1.000000
      9          3.250412   1.000000
     10          4.711315   0.000000
     11          6.936794   0.000000
     12          7.484715   0.000000
     13          7.484718   0.000000
     14         11.309882   0.000000
     15         12.525034   0.000000
     16         13.538586   0.000000
 
  0.8620690E-01  0.0000000E+00  0.8620690E-01  0.5555556E-02
      1        -11.264818   1.000000
      2        -11.253585   1.000000
      3        -11.253585   1.000000
      4        -11.188920   1.000000
      5        -11.187048   1.000000
      6         -8.798952   1.000000
      7          2.055847   1.000000
      8          3.143214   1.000000
      9          3.143215   1.000000
     10          4.988338   0.000000
     11          6.823707   0.000000
     12          7.641625   0.000000
     13          7.641627   0.000000
     14         11.510983   0.000000
     15         12.208595   0.000000
     16         13.580621   0.000000
 
  0.1034483E+00  0.0000000E+00  0.1034483E+00  0.5555556E-02
      1        -11.268256   1.000000
      2        -11.252379   1.000000
      3        -11.252379   1.000000
      4        -11.189420   1.000000
      5        -11.186717   1.000000
      6         -8.751872   1.000000
      7          1.764654   1.000000
      8          3.023216   1.000000
      9          3.023217   1.000000
     10          5.251880   0.000000
     11          6.703886   0.000000
     12          7.822174   0.000000
     13          7.822177   0.000000
     14         11.679683   0.000000
     15         11.965365   0.000000
     16         13.631974   0.000000
 
  0.1206897E+00  0.0000000E+00  0.1206897E+00  0.5555556E-02
      1        -11.272136   1.000000
      2        -11.250986   1.000000
      3        -11.250985   1.000000
      4        -11.190018   1.000000
      5        -11.186337   1.000000
      6         -8.696615   1.000000
      7          1.475719   1.000000
      8          2.894274   1.000000
      9          2.894275   1.000000
     10          5.493823   0.000000
     11          6.586346   0.000000
     12          8.022414   0.000000
     13          8.022417   0.000000
     14         11.524446   0.000000
     15         12.091516   0.000000
     16         13.692622   0.000000
 
  0.1379310E+00  0.0000000E+00  0.1379310E+00  0.5555556E-02
      1        -11.276385   1.000000
      2        -11.249419   1.000000
      3        -11.249419   1.000000
      4        -11.190714   1.000000
      5        -11.185910   1.000000
      6         -8.633373   1.000000
      7          1.189312   1.000000
      8          2.759667   1.000000
      9          2.759668   1.000000
     10          5.698828   0.000000
     11          6.485322   0.000000
     12          8.238952   0.000000
     13          8.238955   0.000000
     14         11.269699   0.000000
     15         12.366912   0.000000
     16         13.762545   0.000000
 
  0.1551724E+00  0.0000000E+00  0.1551724E+00  0.5555556E-02
      1        -11.280929   1.000000
      2        -11.247696   1.000000
      3        -11.247696   1.000000
      4        -11.191501   1.000000
      5        -11.185440   1.000000
      6         -8.562374   1.000000
      7          0.905662   1.000000
      8          2.622114   1.000000
      9          2.622116   1.000000
     10          5.835951   0.000000
     11          6.428551   0.000000
     12          8.468958   0.000000
     13          8.468961   0.000000
     14         11.038968   0.000000
     15         12.672955   0.000000
     16         13.841729   0.000000
 
  0.1724138E+00  0.0000000E+00  0.1724138E+00  0.5555556E-02
      1        -11.285692   1.000000
      2        -11.245835   1.000000
      3        -11.245835   1.000000
      4        -11.192375   1.000000
      5        -11.184935   1.000000
      6         -8.483884   1.000000
      7          0.625000   1.000000
      8          2.483831   1.000000
      9          2.483833   1.000000
     10          5.868671   0.000000
     11          6.447504   0.000000
     12          8.710068   0.000000
     13          8.710071   0.000000
     14         10.850404   0.000000
     15         12.997332   0.000000
     16         13.930103   0.000000
 
  0.1896552E+00  0.0000000E+00  0.1896552E+00  0.5555556E-02
      1        -11.290605   1.000000
      2        -11.243854   1.000000
      3        -11.243854   1.000000
      4        -11.193326   1.000000
      5        -11.184401   1.000000
      6         -8.398193   1.000000
      7          0.347563   1.000000
      8          2.346620   1.000000
      9          2.346621   1.000000
     10          5.815134   0.000000
     11          6.517905   0.000000
     12          8.960370   0.000000
     13          8.960373   0.000000
     14         10.714814   0.000000
     15         13.335344   0.000000
     16         14.027634   0.000000
 
  0.2068966E+00  0.0000000E+00  0.2068966E+00  0.5555556E-02
      1        -11.295600   1.000000
      2        -11.241780   1.000000
      3        -11.241780   1.000000
      4        -11.194343   1.000000
      5        -11.183843   1.000000
      6         -8.305630   1.000000
      7          0.073630   1.000000
      8          2.211940   1.000000
      9          2.211941   1.000000
     10          5.724340   0.000000
     11          6.585064   0.000000
     12          9.218253   0.000000
     13          9.218256   0.000000
     14         10.640483   0.000000
     15         13.683614   0.000000
     16         14.134253   0.000000
 
  0.2241379E+00  0.0000000E+00  0.2241379E+00  0.5555556E-02
      1        -11.300613   1.000000
      2        -11.239631   1.000000
      3        -11.239631   1.000000
      4        -11.195414   1.000000
      5        -11.183265   1.000000
      6         -8.206582   1.000000
      7         -0.196463   1.000000
      8          2.080992   1.000000
      9          2.080993   1.000000
     10          5.622704   0.000000
     11          6.619617   0.000000
     12          9.482409   0.000000
     13          9.482412   0.000000
     14         10.632095   0.000000
     15         14.039049   0.000000
     16         14.249904   0.000000
 
  0.2413793E+00  0.0000000E+00  0.2413793E+00  0.5555556E-02
      1        -11.305585   1.000000
      2        -11.237432   1.000000
      3        -11.237432   1.000000
      4        -11.196526   1.000000
      5        -11.182679   1.000000
      6         -8.101510   1.000000
      7         -0.462322   1.000000
      8          1.954747   1.000000
      9          1.954748   1.000000
     10          5.520755   0.000000
     11          6.612514   0.000000
     12          9.751696   0.000000
     13          9.751699   0.000000
     14         10.689258   0.000000
     15         14.374432   0.000000
     16         14.398325   0.000000
 
  0.2586207E+00  0.0000000E+00  0.2586207E+00  0.5555556E-02
      1        -11.310466   1.000000
      2        -11.235215   1.000000
      3        -11.235215   1.000000
      4        -11.197667   1.000000
      5        -11.182091   1.000000
      6         -7.990951   1.000000
      7         -0.723459   1.000000
      8          1.834013   1.000000
      9          1.834014   1.000000
     10          5.423109   0.000000
     11          6.565295   0.000000
     12         10.025120   0.000000
     13         10.025122   0.000000
     14         10.806440   0.000000
     15         14.507706   0.000000
     16         14.757558   0.000000
 
  0.2758621E+00  0.0000000E+00  0.2758621E+00  0.5555556E-02
      1        -11.315209   1.000000
      2        -11.233004   1.000000
      3        -11.233004   1.000000
      4        -11.198824   1.000000
      5        -11.181510   1.000000
      6         -7.875527   1.000000
      7         -0.979296   1.000000
      8          1.719460   1.000000
      9          1.719461   1.000000
     10          5.332153   0.000000
     11          6.484846   0.000000
     12         10.301774   0.000000
     13         10.301777   0.000000
     14         10.974641   0.000000
     15         14.649537   0.000000
     16         15.111939   0.000000
 
  0.2931034E+00  0.0000000E+00  0.2931034E+00  0.5555556E-02
      1        -11.319763   1.000000
      2        -11.230818   1.000000
      3        -11.230818   1.000000
      4        -11.199975   1.000000
      5        -11.180936   1.000000
      6         -7.755976   1.000000
      7         -1.229075   1.000000
      8          1.611655   1.000000
      9          1.611656   1.000000
     10          5.249302   0.000000
     11          6.379938   0.000000
     12         10.580792   0.000000
     13         10.580795   0.000000
     14         11.183673   0.000000
     15         14.799680   0.000000
     16         15.455376   0.000000
 
  0.3103448E+00  0.0000000E+00  0.3103448E+00  0.5555556E-02
      1        -11.324090   1.000000
      2        -11.228687   1.000000
      3        -11.228687   1.000000
      4        -11.201106   1.000000
      5        -11.180379   1.000000
      6         -7.633208   1.000000
      7         -1.471893   1.000000
      8          1.511070   1.000000
      9          1.511071   1.000000
     10          5.175475   0.000000
     11          6.259011   0.000000
     12         10.861263   0.000000
     13         10.861265   0.000000
     14         11.423819   0.000000
     15         14.957792   0.000000
     16         15.779776   0.000000
 
  0.3275862E+00  0.0000000E+00  0.3275862E+00  0.5555556E-02
      1        -11.328153   1.000000
      2        -11.226640   1.000000
      3        -11.226640   1.000000
      4        -11.202202   1.000000
      5        -11.179847   1.000000
      6         -7.508315   1.000000
      7         -1.706636   1.000000
      8          1.418110   1.000000
      9          1.418111   1.000000
     10          5.111317   0.000000
     11          6.129232   0.000000
     12         11.142127   0.000000
     13         11.142129   0.000000
     14         11.686633   0.000000
     15         15.123391   0.000000
     16         16.074681   0.000000
 
  0.3448276E+00  0.0000000E+00  0.3448276E+00  0.5555556E-02
      1        -11.331920   1.000000
      2        -11.224700   1.000000
      3        -11.224700   1.000000
      4        -11.203252   1.000000
      5        -11.179344   1.000000
      6         -7.382655   1.000000
      7         -1.931933   1.000000
      8          1.333117   1.000000
      9          1.333118   1.000000
     10          5.057308   0.000000
     11          5.996232   0.000000
     12         11.422124   0.000000
     13         11.422127   0.000000
     14         11.965018   0.000000
     15         15.295823   0.000000
     16         16.327023   0.000000
 
  0.3620690E+00  0.0000000E+00  0.3620690E+00  0.5555556E-02
      1        -11.335363   1.000000
      2        -11.222891   1.000000
      3        -11.222891   1.000000
      4        -11.204236   1.000000
      5        -11.178876   1.000000
      6         -7.257861   1.000000
      7         -2.146098   1.000000
      8          1.256381   1.000000
      9          1.256382   1.000000
     10          5.013811   0.000000
     11          5.864285   0.000000
     12         11.699591   0.000000
     13         11.699594   0.000000
     14         12.252886   0.000000
     15         15.474147   0.000000
     16         16.522209   0.000000
 
  0.3793103E+00  0.0000000E+00  0.3793103E+00  0.5555556E-02
      1        -11.338456   1.000000
      2        -11.221231   1.000000
      3        -11.221231   1.000000
      4        -11.205139   1.000000
      5        -11.178449   1.000000
      6         -7.135951   1.000000
      7         -2.347046   1.000000
      8          1.188148   1.000000
      9          1.188149   1.000000
     10          4.981102   0.000000
     11          5.736581   0.000000
     12         11.972256   0.000000
     13         11.972259   0.000000
     14         12.544693   0.000000
     15         15.657003   0.000000
     16         16.647314   0.000000
 
  0.3965517E+00  0.0000000E+00  0.3965517E+00  0.5555556E-02
      1        -11.341180   1.000000
      2        -11.219747   1.000000
      3        -11.219746   1.000000
      4        -11.205949   1.000000
      5        -11.178068   1.000000
      6         -7.019390   1.000000
      7         -2.532263   1.000000
      8          1.128623   1.000000
      9          1.128624   1.000000
     10          4.959365   0.000000
     11          5.615493   0.000000
     12         12.236880   0.000000
     13         12.236882   0.000000
     14         12.834854   0.000000
     15         15.842313   0.000000
     16         16.696367   0.000000
 
  0.4137931E+00  0.0000000E+00  0.4137931E+00  0.5555556E-02
      1        -11.343515   1.000000
      2        -11.218457   1.000000
      3        -11.218457   1.000000
      4        -11.206656   1.000000
      5        -11.177738   1.000000
      6         -6.911128   1.000000
      7         -2.698737   1.000000
      8          1.077979   1.000000
      9          1.077980   1.000000
     10          4.948704   0.000000
     11          5.502815   0.000000
     12         12.488822   0.000000
     13         12.488825   0.000000
     14         13.117038   0.000000
     15         16.026874   0.000000
     16         16.674624   0.000000
 
  0.4310345E+00  0.0000000E+00  0.4310345E+00  0.5555556E-02
      1        -11.345452   1.000000
      2        -11.217382   1.000000
      3        -11.217382   1.000000
      4        -11.207253   1.000000
      5        -11.177465   1.000000
      6         -6.814622   1.000000
      7         -2.842977   1.000000
      8          1.036354   1.000000
      9          1.036355   1.000000
     10          4.949071   0.000000
     11          5.399973   0.000000
     12         12.721379   0.000000
     13         12.721382   0.000000
     14         13.383156   0.000000
     15         16.205686   0.000000
     16         16.597761   0.000000
 
  0.4482759E+00  0.0000000E+00  0.4482759E+00  0.5555556E-02
      1        -11.346968   1.000000
      2        -11.216531   1.000000
      3        -11.216530   1.000000
      4        -11.207725   1.000000
      5        -11.177248   1.000000
      6         -6.733673   1.000000
      7         -2.961111   1.000000
      8          1.003867   1.000000
      9          1.003868   1.000000
     10          4.960148   0.000000
     11          5.308297   0.000000
     12         12.925071   0.000000
     13         12.925073   0.000000
     14         13.622019   0.000000
     15         16.370845   0.000000
     16         16.489777   0.000000
 
  0.4655172E+00  0.0000000E+00  0.4655172E+00  0.5555556E-02
      1        -11.348058   1.000000
      2        -11.215914   1.000000
      3        -11.215914   1.000000
      4        -11.208067   1.000000
      5        -11.177091   1.000000
      6         -6.672176   1.000000
      7         -3.049201   1.000000
      8          0.980602   1.000000
      9          0.980603   1.000000
     10          4.980809   0.000000
     11          5.229608   0.000000
     12         13.087274   0.000000
     13         13.087277   0.000000
     14         13.817713   0.000000
     15         16.377859   0.000000
     16         16.511059   0.000000
 
  0.4827586E+00  0.0000000E+00  0.4827586E+00  0.5555556E-02
      1        -11.348713   1.000000
      2        -11.215540   1.000000
      3        -11.215540   1.000000
      4        -11.208272   1.000000
      5        -11.176998   1.000000
      6         -6.633616   1.000000
      7         -3.103721   1.000000
      8          0.966620   1.000000
      9          0.966621   1.000000
     10          5.006961   0.000000
     11          5.168464   0.000000
     12         13.193343   0.000000
     13         13.193345   0.000000
     14         13.949443   0.000000
     15         16.293547   0.000000
     16         16.601622   0.000000
 
  0.5000000E+00  0.0000000E+00  0.5000000E+00  0.5555556E-02
      1        -11.348926   1.000000
      2        -11.215411   1.000000
      3        -11.215411   1.000000
      4        -11.208335   1.000000
      5        -11.176965   1.000000
      6         -6.620462   1.000000
      7         -3.122188   1.000000
      8          0.961959   1.000000
      9          0.961960   1.000000
     10          5.022480   0.000000
     11          5.141260   0.000000
     12         13.230461   0.000000
     13         13.230464   0.000000
     14         13.996456   0.000000
     15         16.260890   0.000000
     16         16.558335   0.000000
 
  0.5000000E+00  0.0000000E+00  0.5000000E+00  0.5555556E-02
      1        -11.348926   1.000000
      2        -11.215411   1.000000
      3        -11.215411   1.000000
      4        -11.208335   1.000000
      5        -11.176965   1.000000
      6         -6.620462   1.000000
      7         -3.122188   1.000000
      8          0.961959   1.000000
      9          0.961960   1.000000
     10          5.022480   0.000000
     11          5.141260   0.000000
     12         13.230461   0.000000
     13         13.230464   0.000000
     14         13.996456   0.000000
     15         16.263780   0.000000
     16         16.558204   0.000000
 
  0.5043103E+00  0.8620690E-02  0.5043103E+00  0.5555556E-02
      1        -11.348914   1.000000
      2        -11.215437   1.000000
      3        -11.215418   1.000000
      4        -11.208317   1.000000
      5        -11.176973   1.000000
      6         -6.620395   1.000000
      7         -3.121971   1.000000
      8          0.958921   1.000000
      9          0.962448   1.000000
     10          5.025221   0.000000
     11          5.144165   0.000000
     12         13.222824   0.000000
     13         13.226525   0.000000
     14         13.996876   0.000000
     15         16.239194   0.000000
     16         16.533298   0.000000
 
  0.5086207E+00  0.1724138E-01  0.5086207E+00  0.5555556E-02
      1        -11.348872   1.000000
      2        -11.215507   1.000000
      3        -11.215439   1.000000
      4        -11.208264   1.000000
      5        -11.176995   1.000000
      6         -6.620195   1.000000
      7         -3.121317   1.000000
      8          0.949874   1.000000
      9          0.963912   1.000000
     10          5.032868   0.000000
     11          5.153403   0.000000
     12         13.200463   0.000000
     13         13.214765   0.000000
     14         13.997472   0.000000
     15         16.186801   0.000000
     16         16.439972   0.000000
 
  0.5129310E+00  0.2586207E-01  0.5129310E+00  0.5555556E-02
      1        -11.348799   1.000000
      2        -11.215622   1.000000
      3        -11.215476   1.000000
      4        -11.208176   1.000000
      5        -11.177032   1.000000
      6         -6.619867   1.000000
      7         -3.120228   1.000000
      8          0.934982   1.000000
      9          0.966349   1.000000
     10          5.043817   0.000000
     11          5.170415   0.000000
     12         13.164828   0.000000
     13         13.195354   0.000000
     14         13.996448   0.000000
     15         16.130852   0.000000
     16         16.360679   0.000000
 
  0.5172414E+00  0.3448276E-01  0.5172414E+00  0.5555556E-02
      1        -11.348694   1.000000
      2        -11.215779   1.000000
      3        -11.215524   1.000000
      4        -11.208052   1.000000
      5        -11.177083   1.000000
      6         -6.619417   1.000000
      7         -3.118702   1.000000
      8          0.914515   1.000000
      9          0.969763   1.000000
     10          5.055994   0.000000
     11          5.197014   0.000000
     12         13.117859   0.000000
     13         13.168563   0.000000
     14         13.991416   0.000000
     15         16.080434   0.000000
     16         16.278952   0.000000
 
  0.5215517E+00  0.4310345E-01  0.5215517E+00  0.5555556E-02
      1        -11.348563   1.000000
      2        -11.215976   1.000000
      3        -11.215587   1.000000
      4        -11.207899   1.000000
      5        -11.177147   1.000000
      6         -6.618859   1.000000
      7         -3.116747   1.000000
      8          0.888822   1.000000
      9          0.974149   1.000000
     10          5.067828   0.000000
     11          5.234416   0.000000
     12         13.061565   0.000000
     13         13.134741   0.000000
     14         13.979925   0.000000
     15         16.039941   0.000000
     16         16.193981   0.000000
 
  0.5258621E+00  0.5172414E-01  0.5258621E+00  0.5555556E-02
      1        -11.348403   1.000000
      2        -11.216209   1.000000
      3        -11.215663   1.000000
      4        -11.207716   1.000000
      5        -11.177225   1.000000
      6         -6.618208   1.000000
      7         -3.114367   1.000000
      8          0.858328   1.000000
      9          0.979506   1.000000
     10          5.078796   0.000000
     11          5.282727   0.000000
     12         12.997787   0.000000
     13         13.094309   0.000000
     14         13.959925   0.000000
     15         16.011649   0.000000
     16         16.106481   0.000000
 
  0.5301724E+00  0.6034483E-01  0.5301724E+00  0.5555556E-02
      1        -11.348216   1.000000
      2        -11.216475   1.000000
      3        -11.215753   1.000000
      4        -11.207509   1.000000
      5        -11.177317   1.000000
      6         -6.617481   1.000000
      7         -3.111568   1.000000
      8          0.823505   1.000000
      9          0.985830   1.000000
     10          5.089101   0.000000
     11          5.341276   0.000000
     12         12.928074   0.000000
     13         13.047730   0.000000
     14         13.930008   0.000000
     15         15.996480   0.000000
     16         16.016563   0.000000
 
  0.5344828E+00  0.6896552E-01  0.5344828E+00  0.5555556E-02
      1        -11.348001   1.000000
      2        -11.216773   1.000000
      3        -11.215856   1.000000
      4        -11.207279   1.000000
      5        -11.177424   1.000000
      6         -6.616699   1.000000
      7         -3.108357   1.000000
      8          0.784864   1.000000
      9          0.993116   1.000000
     10          5.099147   0.000000
     11          5.409161   0.000000
     12         12.853701   0.000000
     13         12.995497   0.000000
     14         13.889512   0.000000
     15         15.924446   0.000000
     16         15.994679   0.000000
 
  0.5387931E+00  0.7758621E-01  0.5387931E+00  0.5555556E-02
      1        -11.347761   1.000000
      2        -11.217098   1.000000
      3        -11.215974   1.000000
      4        -11.207028   1.000000
      5        -11.177544   1.000000
      6         -6.615888   1.000000
      7         -3.104739   1.000000
      8          0.742925   1.000000
      9          1.001362   1.000000
     10          5.109284   0.000000
     11          5.485515   0.000000
     12         12.775691   0.000000
     13         12.938111   0.000000
     14         13.838469   0.000000
     15         15.830378   0.000000
     16         16.005727   0.000000
 
  0.5431034E+00  0.8620690E-01  0.5431034E+00  0.5555556E-02
      1        -11.347495   1.000000
      2        -11.217448   1.000000
      3        -11.216105   1.000000
      4        -11.206758   1.000000
      5        -11.177677   1.000000
      6         -6.615074   1.000000
      7         -3.100721   1.000000
      8          0.698216   1.000000
      9          1.010563   1.000000
     10          5.119763   0.000000
     11          5.569569   0.000000
     12         12.694867   0.000000
     13         12.876073   0.000000
     14         13.777473   0.000000
     15         15.734630   0.000000
     16         16.028608   0.000000
 
  0.5474138E+00  0.9482759E-01  0.5474138E+00  0.5555556E-02
      1        -11.347203   1.000000
      2        -11.217822   1.000000
      3        -11.216249   1.000000
      4        -11.206470   1.000000
      5        -11.177823   1.000000
      6         -6.614289   1.000000
      7         -3.096311   1.000000
      8          0.651255   1.000000
      9          1.020713   1.000000
     10          5.130749   0.000000
     11          5.660647   0.000000
     12         12.611894   0.000000
     13         12.809866   0.000000
     14         13.707477   0.000000
     15         15.637465   0.000000
     16         16.062000   0.000000
 
  0.5517241E+00  0.1034483E+00  0.5517241E+00  0.5555556E-02
      1        -11.346887   1.000000
      2        -11.218215   1.000000
      3        -11.216408   1.000000
      4        -11.206165   1.000000
      5        -11.177981   1.000000
      6         -6.613566   1.000000
      7         -3.091515   1.000000
      8          0.602541   1.000000
      9          1.031808   1.000000
     10          5.142351   0.000000
     11          5.758147   0.000000
     12         12.527317   0.000000
     13         12.739950   0.000000
     14         13.629618   0.000000
     15         15.539140   0.000000
     16         16.104480   0.000000
 
  0.5560345E+00  0.1120690E+00  0.5560345E+00  0.5555556E-02
      1        -11.346548   1.000000
      2        -11.218628   1.000000
      3        -11.216580   1.000000
      4        -11.205845   1.000000
      5        -11.178152   1.000000
      6         -6.612942   1.000000
      7         -3.086341   1.000000
      8          0.552550   1.000000
      9          1.043841   1.000000
     10          5.154635   0.000000
     11          5.861524   0.000000
     12         12.441590   0.000000
     13         12.666760   0.000000
     14         13.545071   0.000000
     15         15.439896   0.000000
     16         16.154613   0.000000
 
  0.5603448E+00  0.1206897E+00  0.5603448E+00  0.5555556E-02
      1        -11.346187   1.000000
      2        -11.219058   1.000000
      3        -11.216765   1.000000
      4        -11.205510   1.000000
      5        -11.178333   1.000000
      6         -6.612457   1.000000
      7         -3.080795   1.000000
      8          0.501734   1.000000
      9          1.056806   1.000000
     10          5.167645   0.000000
     11          5.970284   0.000000
     12         12.355094   0.000000
     13         12.590696   0.000000
     14         13.454950   0.000000
     15         15.339955   0.000000
     16         16.211036   0.000000
 
  0.5646552E+00  0.1293103E+00  0.5646552E+00  0.5555556E-02
      1        -11.345806   1.000000
      2        -11.219503   1.000000
      3        -11.216964   1.000000
      4        -11.205161   1.000000
      5        -11.178526   1.000000
      6         -6.612156   1.000000
      7         -3.074882   1.000000