 vasp.6.3.0 20Jan22 (build Mar 30 2025 23:57:35) complex                        
  
 executed on             LinuxIFC date 2025.03.31  01:55:23
 running on   16 total cores
 distrk:  each k-point on   16 cores,    1 groups
 distr:  one band on NCORE=   4 cores,    4 groups


--------------------------------------------------------------------------------------------------------


 INCAR:
   ISTART = 0            (Read existing wavefunction, if there)
   ICHARG = 11           (Non-self-consistent: GGA/LDA band structures)
   LREAL = .FALSE.       (Projection operators: automatic)
   ENCUT = 500        (Cut-off energy for plane wave basis set, in eV)
   PREC = Accurate   (Precision level: Normal or Accurate, set Accurate when perform structure lattice relaxation calculation)
   LWAVE = .FALSE.        (Write WAVECAR or not)
   LCHARG = .FALSE.        (Write CHGCAR or not)
   NPAR = 4
   ISMEAR = 0            (gaussian smearing method)
   SIGMA = 0.05         (please check the width of the smearing)
   NELM = 60           (Max electronic SCF steps)
   EDIFF = 1E-06        (SCF energy convergence, in eV)

 POTCAR:    PAW_PBE Ga_d 06Jul2010                
 POTCAR:    PAW_PBE As 22Sep2009                  
 POTCAR:    PAW_PBE Ga_d 06Jul2010                
   VRHFIN =Ga: s2p1                                                                                 
   LEXCH  = PE                                                                                      
   EATOM  =  2148.8298 eV,  157.9345 Ry                                                             
                                                                                                    
   TITEL  = PAW_PBE Ga_d 06Jul2010                                                                  
   LULTRA =        F    use ultrasoft PP ?                                                          
   IUNSCR =        1    unscreen: 0-lin 1-nonlin 2-no                                               
   RPACOR =    1.700    partial core radius                                                         
   POMASS =   69.723; ZVAL   =   13.000    mass and valenz                                          
   RCORE  =    2.300    outmost cutoff radius                                                       
   RWIGS  =    2.300; RWIGS  =    1.217    wigner-seitz radius (au A)                               
   ENMAX  =  282.691; ENMIN  =  212.018 eV                                                          
   ICORE  =        3    local potential                                                             
   LCOR   =        T    correct aug charges                                                         
   LPAW   =        T    paw PP                                                                      
   EAUG   =  490.690                                                                                
   DEXC   =    0.000                                                                                
   RMAX   =    2.341    core radius for proj-oper                                                   
   RAUG   =    1.300    factor for augmentation sphere                                              
   RDEP   =    2.413    radius for radial grids                                                     
   RDEPT  =    1.856    core radius for aug-charge                                                  
                                                                                                    
   Atomic configuration                                                                             
    9 entries                                                                                       
     n  l   j            E        occ.                                                              
     1  0  0.50    -10228.7831   2.0000                                                             
     2  0  0.50     -1262.1604   2.0000                                                             
     2  1  1.50     -1098.6333   6.0000                                                             
     3  0  0.50      -148.1110   2.0000                                                             
     3  1  1.50       -98.8436   6.0000                                                             
     3  2  2.50       -19.1549  10.0000                                                             
     4  0  0.50        -8.9483   2.0000                                                             
     4  1  0.50        -2.5791   1.0000                                                             
     4  3  2.50        -2.7416   0.0000                                                             
   Description                                                                                      
     l       E           TYP  RCUT    TYP  RCUT                                                     
     2    -19.1549037     23  2.300                                                                 
     2     -5.4423304     23  2.300                                                                 
     0     -8.9483111     23  2.300                                                                 
     0     68.0291300     23  2.300                                                                 
     1     -2.5790802     23  2.100                                                                 
     1     81.6349560     23  2.300                                                                 
     3      6.8029130     23  2.300                                                                 
  local pseudopotential read in
  partial core-charges read in
  partial kinetic energy density read in
  atomic valenz-charges read in
  non local Contribution for L=           2  read in
    real space projection operators read in
  non local Contribution for L=           2  read in
    real space projection operators read in
  non local Contribution for L=           0  read in
    real space projection operators read in
  non local Contribution for L=           0  read in
    real space projection operators read in
  non local Contribution for L=           1  read in
    real space projection operators read in
  non local Contribution for L=           1  read in
    real space projection operators read in
    PAW grid and wavefunctions read in
 
   number of l-projection  operators is LMAX  =           6
   number of lm-projection operators is LMMAX =          18
 
 POTCAR:    PAW_PBE As 22Sep2009                  
   VRHFIN =As: s2p3                                                                                 
   LEXCH  = PE                                                                                      
   EATOM  =   170.1867 eV,   12.5084 Ry                                                             
                                                                                                    
   TITEL  = PAW_PBE As 22Sep2009                                                                    
   LULTRA =        F    use ultrasoft PP ?                                                          
   IUNSCR =        1    unscreen: 0-lin 1-nonlin 2-no                                               
   RPACOR =    1.900    partial core radius                                                         
   POMASS =   74.922; ZVAL   =    5.000    mass and valenz                                          
   RCORE  =    2.100    outmost cutoff radius                                                       
   RWIGS  =    2.300; RWIGS  =    1.217    wigner-seitz radius (au A)                               
   ENMAX  =  208.702; ENMIN  =  156.526 eV                                                          
   ICORE  =        3    local potential                                                             
   LCOR   =        T    correct aug charges                                                         
   LPAW   =        T    paw PP                                                                      
   EAUG   =  462.758                                                                                
   DEXC   =    0.000                                                                                
   RMAX   =    2.144    core radius for proj-oper                                                   
   RAUG   =    1.300    factor for augmentation sphere                                              
   RDEP   =    2.140    radius for radial grids                                                     
   RDEPT  =    1.956    core radius for aug-charge                                                  
                                                                                                    
   Atomic configuration                                                                             
   10 entries                                                                                       
     n  l   j            E        occ.                                                              
     1  0  0.50    -11718.0418   2.0000                                                             
     2  0  0.50     -1486.5454   2.0000                                                             
     2  1  1.50     -1303.3889   6.0000                                                             
     3  0  0.50      -190.2849   2.0000                                                             
     3  1  1.50      -133.6555   6.0000                                                             
     3  2  2.50       -40.6443  10.0000                                                             
     4  0  0.50       -14.4936   2.0000                                                             
     4  1  0.50        -5.1947   3.0000                                                             
     4  2  1.50        -5.4423   0.0000                                                             
     4  3  2.50        -5.4423   0.0000                                                             
   Description                                                                                      
     l       E           TYP  RCUT    TYP  RCUT                                                     
     0    -14.4935570     23  2.100                                                                 
     0    -11.9212055     23  2.100                                                                 
     1     -5.1947127     23  2.100                                                                 
     1     27.2116520     23  2.100                                                                 
     2     -5.4423304     23  2.100                                                                 
     3     -1.3605826      7  2.100                                                                 
  local pseudopotential read in
  partial core-charges read in
  partial kinetic energy density read in
  atomic valenz-charges read in
  non local Contribution for L=           0  read in
    real space projection operators read in
  non local Contribution for L=           0  read in
    real space projection operators read in
  non local Contribution for L=           1  read in
    real space projection operators read in
  non local Contribution for L=           1  read in
    real space projection operators read in
  non local Contribution for L=           2  read in
    real space projection operators read in
    PAW grid and wavefunctions read in
 
   number of l-projection  operators is LMAX  =           5
   number of lm-projection operators is LMMAX =          13
 
  PAW_PBE Ga_d 06Jul2010                :
 energy of atom  1       EATOM=-2148.8298
 kinetic energy error for atom=    0.0026 (will be added to EATOM!!)
  PAW_PBE As 22Sep2009                  :
 energy of atom  2       EATOM= -170.1867
 kinetic energy error for atom=    0.0005 (will be added to EATOM!!)
 
 
 POSCAR: Generated by VASPKIT code
  positions in direct lattice
  No initial velocities read in
 exchange correlation table for  LEXCH =        8
   RHO(1)=    0.500       N(1)  =     2000
   RHO(2)=  100.500       N(2)  =     4000
 


--------------------------------------------------------------------------------------------------------


 ion  position               nearest neighbor table
   1  0.000  0.000  0.000-   2 2.49   2 2.49   2 2.49   2 2.49
   2  0.250  0.250  0.250-   1 2.49   1 2.49   1 2.49   1 2.49
 
  LATTYP: Found a face centered cubic cell.
 ALAT       =     5.7501821518
  
  Lattice vectors:
  
 A1 = (   0.0000000000,   2.8750910759,   2.8750910759)
 A2 = (   2.8750910759,   0.0000000000,   2.8750910759)
 A3 = (   2.8750910759,   2.8750910759,   0.0000000000)


Analysis of symmetry for initial positions (statically):
=====================================================================
 Subroutine PRICEL returns:
 Original cell was already a primitive cell.
 

 Routine SETGRP: Setting up the symmetry group for a 
 face centered cubic supercell.


 Subroutine GETGRP returns: Found 24 space group operations
 (whereof 24 operations were pure point group operations)
 out of a pool of 48 trial point group operations.


The static configuration has the point symmetry T_d .


Analysis of symmetry for dynamics (positions and initial velocities):
=====================================================================
 Subroutine PRICEL returns:
 Original cell was already a primitive cell.
 

 Routine SETGRP: Setting up the symmetry group for a 
 face centered cubic supercell.


 Subroutine GETGRP returns: Found 24 space group operations
 (whereof 24 operations were pure point group operations)
 out of a pool of 48 trial point group operations.


The dynamic configuration has the point symmetry T_d .


 Subroutine INISYM returns: Found 24 space group operations
 (whereof 24 operations are pure point group operations),
 and found     1 'primitive' translations


----------------------------------------------------------------------------------------

                                     Primitive cell                                     

  volume of cell :      47.5319

  direct lattice vectors                    reciprocal lattice vectors
     0.000000000  2.875091076  2.875091076    -0.173907534  0.173907534  0.173907534
     2.875091076  0.000000000  2.875091076     0.173907534 -0.173907534  0.173907534
     2.875091076  2.875091076  0.000000000     0.173907534  0.173907534 -0.173907534

  length of vectors
     4.065992793  4.065992793  4.065992793     0.301216685  0.301216685  0.301216685

  position of ions in fractional coordinates (direct lattice)
     0.000000000  0.000000000  0.000000000
     0.250000000  0.250000000  0.250000000

  ion indices of the primitive-cell ions
   primitive index   ion index
                 1           1
                 2           2

----------------------------------------------------------------------------------------

 
 
 KPOINTS: K-Path Generated by VASPKIT.            

Interpolating k-points between supplied coordinates.

 Line segments in fractional coordinates (reciprocal lattice):
    0.000000  0.000000  0.000000  ...  0.500000  0.000000  0.500000
    0.500000  0.000000  0.500000  ...  0.625000  0.250000  0.625000
    0.375000  0.375000  0.750000  ...  0.000000  0.000000  0.000000
    0.000000  0.000000  0.000000  ...  0.500000  0.500000  0.500000
    0.500000  0.500000  0.500000  ...  0.500000  0.250000  0.750000
    0.500000  0.250000  0.750000  ...  0.500000  0.000000  0.500000

 Generated    30 points on each line segment, for a total of    180 k-points:

 Following reciprocal coordinates:
            Coordinates               Weight
  0.000000  0.000000  0.000000      0.005556
  0.017241  0.000000  0.017241      0.005556
  0.034483  0.000000  0.034483      0.005556
  0.051724  0.000000  0.051724      0.005556
  0.068966  0.000000  0.068966      0.005556
  0.086207  0.000000  0.086207      0.005556
  0.103448  0.000000  0.103448      0.005556
  0.120690  0.000000  0.120690      0.005556
  0.137931  0.000000  0.137931      0.005556
  0.155172  0.000000  0.155172      0.005556
  0.172414  0.000000  0.172414      0.005556
  0.189655  0.000000  0.189655      0.005556
  0.206897  0.000000  0.206897      0.005556
  0.224138  0.000000  0.224138      0.005556
  0.241379  0.000000  0.241379      0.005556
  0.258621  0.000000  0.258621      0.005556
  0.275862  0.000000  0.275862      0.005556
  0.293103  0.000000  0.293103      0.005556
  0.310345  0.000000  0.310345      0.005556
  0.327586  0.000000  0.327586      0.005556
  0.344828  0.000000  0.344828      0.005556
  0.362069  0.000000  0.362069      0.005556
  0.379310  0.000000  0.379310      0.005556
  0.396552  0.000000  0.396552      0.005556
  0.413793  0.000000  0.413793      0.005556
  0.431034  0.000000  0.431034      0.005556
  0.448276  0.000000  0.448276      0.005556
  0.465517  0.000000  0.465517      0.005556
  0.482759  0.000000  0.482759      0.005556
  0.500000  0.000000  0.500000      0.005556
  0.500000  0.000000  0.500000      0.005556
  0.504310  0.008621  0.504310      0.005556
  0.508621  0.017241  0.508621      0.005556
  0.512931  0.025862  0.512931      0.005556
  0.517241  0.034483  0.517241      0.005556
  0.521552  0.043103  0.521552      0.005556
  0.525862  0.051724  0.525862      0.005556
  0.530172  0.060345  0.530172      0.005556
  0.534483  0.068966  0.534483      0.005556
  0.538793  0.077586  0.538793      0.005556
  0.543103  0.086207  0.543103      0.005556
  0.547414  0.094828  0.547414      0.005556
  0.551724  0.103448  0.551724      0.005556
  0.556034  0.112069  0.556034      0.005556
  0.560345  0.120690  0.560345      0.005556
  0.564655  0.129310  0.564655      0.005556
  0.568966  0.137931  0.568966      0.005556
  0.573276  0.146552  0.573276      0.005556
  0.577586  0.155172  0.577586      0.005556
  0.581897  0.163793  0.581897      0.005556
  0.586207  0.172414  0.586207      0.005556
  0.590517  0.181034  0.590517      0.005556
  0.594828  0.189655  0.594828      0.005556
  0.599138  0.198276  0.599138      0.005556
  0.603448  0.206897  0.603448      0.005556
  0.607759  0.215517  0.607759      0.005556
  0.612069  0.224138  0.612069      0.005556
  0.616379  0.232759  0.616379      0.005556
  0.620690  0.241379  0.620690      0.005556
  0.625000  0.250000  0.625000      0.005556
  0.375000  0.375000  0.750000      0.005556
  0.362069  0.362069  0.724138      0.005556
  0.349138  0.349138  0.698276      0.005556
  0.336207  0.336207  0.672414      0.005556
  0.323276  0.323276  0.646552      0.005556
  0.310345  0.310345  0.620690      0.005556
  0.297414  0.297414  0.594828      0.005556
  0.284483  0.284483  0.568966      0.005556
  0.271552  0.271552  0.543103      0.005556
  0.258621  0.258621  0.517241      0.005556
  0.245690  0.245690  0.491379      0.005556
  0.232759  0.232759  0.465517      0.005556
  0.219828  0.219828  0.439655      0.005556
  0.206897  0.206897  0.413793      0.005556
  0.193966  0.193966  0.387931      0.005556
  0.181034  0.181034  0.362069      0.005556
  0.168103  0.168103  0.336207      0.005556
  0.155172  0.155172  0.310345      0.005556
  0.142241  0.142241  0.284483      0.005556
  0.129310  0.129310  0.258621      0.005556
  0.116379  0.116379  0.232759      0.005556
  0.103448  0.103448  0.206897      0.005556
  0.090517  0.090517  0.181034      0.005556
  0.077586  0.077586  0.155172      0.005556
  0.064655  0.064655  0.129310      0.005556
  0.051724  0.051724  0.103448      0.005556
  0.038793  0.038793  0.077586      0.005556
  0.025862  0.025862  0.051724      0.005556
  0.012931  0.012931  0.025862      0.005556
  0.000000  0.000000  0.000000      0.005556
  0.000000  0.000000  0.000000      0.005556
  0.017241  0.017241  0.017241      0.005556
  0.034483  0.034483  0.034483      0.005556
  0.051724  0.051724  0.051724      0.005556
  0.068966  0.068966  0.068966      0.005556
  0.086207  0.086207  0.086207      0.005556
  0.103448  0.103448  0.103448      0.005556
  0.120690  0.120690  0.120690      0.005556
  0.137931  0.137931  0.137931      0.005556
  0.155172  0.155172  0.155172      0.005556
  0.172414  0.172414  0.172414      0.005556
  0.189655  0.189655  0.189655      0.005556
  0.206897  0.206897  0.206897      0.005556
  0.224138  0.224138  0.224138      0.005556
  0.241379  0.241379  0.241379      0.005556
  0.258621  0.258621  0.258621      0.005556
  0.275862  0.275862  0.275862      0.005556
  0.293103  0.293103  0.293103      0.005556
  0.310345  0.310345  0.310345      0.005556
  0.327586  0.327586  0.327586      0.005556
  0.344828  0.344828  0.344828      0.005556
  0.362069  0.362069  0.362069      0.005556
  0.379310  0.379310  0.379310      0.005556
  0.396552  0.396552  0.396552      0.005556
  0.413793  0.413793  0.413793      0.005556
  0.431034  0.431034  0.431034      0.005556
  0.448276  0.448276  0.448276      0.005556
  0.465517  0.465517  0.465517      0.005556
  0.482759  0.482759  0.482759      0.005556
  0.500000  0.500000  0.500000      0.005556
  0.500000  0.500000  0.500000      0.005556
  0.500000  0.491379  0.508621      0.005556
  0.500000  0.482759  0.517241      0.005556
  0.500000  0.474138  0.525862      0.005556
  0.500000  0.465517  0.534483      0.005556
  0.500000  0.456897  0.543103      0.005556
  0.500000  0.448276  0.551724      0.005556
  0.500000  0.439655  0.560345      0.005556
  0.500000  0.431034  0.568966      0.005556
  0.500000  0.422414  0.577586      0.005556
  0.500000  0.413793  0.586207      0.005556
  0.500000  0.405172  0.594828      0.005556
  0.500000  0.396552  0.603448      0.005556
  0.500000  0.387931  0.612069      0.005556
  0.500000  0.379310  0.620690      0.005556
  0.500000  0.370690  0.629310      0.005556
  0.500000  0.362069  0.637931      0.005556
  0.500000  0.353448  0.646552      0.005556
  0.500000  0.344828  0.655172      0.005556
  0.500000  0.336207  0.663793      0.005556
  0.500000  0.327586  0.672414      0.005556
  0.500000  0.318966  0.681034      0.005556
  0.500000  0.310345  0.689655      0.005556
  0.500000  0.301724  0.698276      0.005556
  0.500000  0.293103  0.706897      0.005556
  0.500000  0.284483  0.715517      0.005556
  0.500000  0.275862  0.724138      0.005556
  0.500000  0.267241  0.732759      0.005556
  0.500000  0.258621  0.741379      0.005556
  0.500000  0.250000  0.750000      0.005556
  0.500000  0.250000  0.750000      0.005556
  0.500000  0.241379  0.741379      0.005556
  0.500000  0.232759  0.732759      0.005556
  0.500000  0.224138  0.724138      0.005556
  0.500000  0.215517  0.715517      0.005556
  0.500000  0.206897  0.706897      0.005556
  0.500000  0.198276  0.698276      0.005556
  0.500000  0.189655  0.689655      0.005556
  0.500000  0.181034  0.681034      0.005556
  0.500000  0.172414  0.672414      0.005556
  0.500000  0.163793  0.663793      0.005556
  0.500000  0.155172  0.655172      0.005556
  0.500000  0.146552  0.646552      0.005556
  0.500000  0.137931  0.637931      0.005556
  0.500000  0.129310  0.629310      0.005556
  0.500000  0.120690  0.620690      0.005556
  0.500000  0.112069  0.612069      0.005556
  0.500000  0.103448  0.603448      0.005556
  0.500000  0.094828  0.594828      0.005556
  0.500000  0.086207  0.586207      0.005556
  0.500000  0.077586  0.577586      0.005556
  0.500000  0.068966  0.568966      0.005556
  0.500000  0.060345  0.560345      0.005556
  0.500000  0.051724  0.551724      0.005556
  0.500000  0.043103  0.543103      0.005556
  0.500000  0.034483  0.534483      0.005556
  0.500000  0.025862  0.525862      0.005556
  0.500000  0.017241  0.517241      0.005556
  0.500000  0.008621  0.508621      0.005556
  0.500000  0.000000  0.500000      0.005556

 Following cartesian coordinates:
            Coordinates               Weight
  0.000000  0.000000  0.000000      0.005556
  0.000000  0.005997 -0.000000      0.005556
  0.000000  0.011994 -0.000000      0.005556
 -0.000000  0.017990  0.000000      0.005556
  0.000000  0.023987 -0.000000      0.005556
  0.000000  0.029984 -0.000000      0.005556
 -0.000000  0.035981  0.000000      0.005556
 -0.000000  0.041978  0.000000      0.005556
  0.000000  0.047974 -0.000000      0.005556
 -0.000000  0.053971  0.000000      0.005556
  0.000000  0.059968 -0.000000      0.005556
  0.000000  0.065965 -0.000000      0.005556
 -0.000000  0.071962  0.000000      0.005556
 -0.000000  0.077959  0.000000      0.005556
 -0.000000  0.083955  0.000000      0.005556
  0.000000  0.089952 -0.000000      0.005556
  0.000000  0.095949 -0.000000      0.005556
  0.000000  0.101946 -0.000000      0.005556
 -0.000000  0.107943  0.000000      0.005556
 -0.000000  0.113939  0.000000      0.005556
  0.000000  0.119936 -0.000000      0.005556
 -0.000000  0.125933  0.000000      0.005556
  0.000000  0.131930 -0.000000      0.005556
  0.000000  0.137927 -0.000000      0.005556
 -0.000000  0.143923  0.000000      0.005556
  0.000000  0.149920 -0.000000      0.005556
 -0.000000  0.155917  0.000000      0.005556
  0.000000  0.161914 -0.000000      0.005556
 -0.000000  0.167911  0.000000      0.005556
  0.000000  0.173908  0.000000      0.005556
  0.000000  0.173908  0.000000      0.005556
  0.001499  0.173908  0.001499      0.005556
  0.002998  0.173908  0.002998      0.005556
  0.004498  0.173908  0.004498      0.005556
  0.005997  0.173908  0.005997      0.005556
  0.007496  0.173908  0.007496      0.005556
  0.008995  0.173908  0.008995      0.005556
  0.010494  0.173908  0.010494      0.005556
  0.011994  0.173908  0.011994      0.005556
  0.013493  0.173908  0.013493      0.005556
  0.014992  0.173908  0.014992      0.005556
  0.016491  0.173908  0.016491      0.005556
  0.017990  0.173908  0.017990      0.005556
  0.019490  0.173908  0.019490      0.005556
  0.020989  0.173908  0.020989      0.005556
  0.022488  0.173908  0.022488      0.005556
  0.023987  0.173908  0.023987      0.005556
  0.025486  0.173908  0.025486      0.005556
  0.026986  0.173908  0.026986      0.005556
  0.028485  0.173908  0.028485      0.005556
  0.029984  0.173908  0.029984      0.005556
  0.031483  0.173908  0.031483      0.005556
  0.032982  0.173908  0.032982      0.005556
  0.034482  0.173908  0.034482      0.005556
  0.035981  0.173908  0.035981      0.005556
  0.037480  0.173908  0.037480      0.005556
  0.038979  0.173908  0.038979      0.005556
  0.040478  0.173908  0.040478      0.005556
  0.041978  0.173908  0.041978      0.005556
  0.043477  0.173908  0.043477      0.005556
  0.130431  0.130431  0.000000      0.005556
  0.125933  0.125933  0.000000      0.005556
  0.121435  0.121435 -0.000000      0.005556
  0.116938  0.116938 -0.000000      0.005556
  0.112440  0.112440  0.000000      0.005556
  0.107943  0.107943  0.000000      0.005556
  0.103445  0.103445  0.000000      0.005556
  0.098947  0.098947  0.000000      0.005556
  0.094450  0.094450 -0.000000      0.005556
  0.089952  0.089952 -0.000000      0.005556
  0.085455  0.085455 -0.000000      0.005556
  0.080957  0.080957 -0.000000      0.005556
  0.076459  0.076459 -0.000000      0.005556
  0.071962  0.071962  0.000000      0.005556
  0.067464  0.067464  0.000000      0.005556
  0.062967  0.062967  0.000000      0.005556
  0.058469  0.058469 -0.000000      0.005556
  0.053971  0.053971  0.000000      0.005556
  0.049474  0.049474  0.000000      0.005556
  0.044976  0.044976 -0.000000      0.005556
  0.040478  0.040478  0.000000      0.005556
  0.035981  0.035981  0.000000      0.005556
  0.031483  0.031483  0.000000      0.005556
  0.026986  0.026986  0.000000      0.005556
  0.022488  0.022488 -0.000000      0.005556
  0.017990  0.017990  0.000000      0.005556
  0.013493  0.013493 -0.000000      0.005556
  0.008995  0.008995  0.000000      0.005556
  0.004498  0.004498 -0.000000      0.005556
  0.000000  0.000000  0.000000      0.005556
  0.000000  0.000000  0.000000      0.005556
  0.002998  0.002998  0.002998      0.005556
  0.005997  0.005997  0.005997      0.005556
  0.008995  0.008995  0.008995      0.005556
  0.011994  0.011994  0.011994      0.005556
  0.014992  0.014992  0.014992      0.005556
  0.017990  0.017990  0.017990      0.005556
  0.020989  0.020989  0.020989      0.005556
  0.023987  0.023987  0.023987      0.005556
  0.026986  0.026986  0.026986      0.005556
  0.029984  0.029984  0.029984      0.005556
  0.032982  0.032982  0.032982      0.005556
  0.035981  0.035981  0.035981      0.005556
  0.038979  0.038979  0.038979      0.005556
  0.041978  0.041978  0.041978      0.005556
  0.044976  0.044976  0.044976      0.005556
  0.047974  0.047974  0.047974      0.005556
  0.050973  0.050973  0.050973      0.005556
  0.053971  0.053971  0.053971      0.005556
  0.056970  0.056970  0.056970      0.005556
  0.059968  0.059968  0.059968      0.005556
  0.062967  0.062967  0.062967      0.005556
  0.065965  0.065965  0.065965      0.005556
  0.068963  0.068963  0.068963      0.005556
  0.071962  0.071962  0.071962      0.005556
  0.074960  0.074960  0.074960      0.005556
  0.077959  0.077959  0.077959      0.005556
  0.080957  0.080957  0.080957      0.005556
  0.083955  0.083955  0.083955      0.005556
  0.086954  0.086954  0.086954      0.005556
  0.086954  0.086954  0.086954      0.005556
  0.086954  0.089952  0.083955      0.005556
  0.086954  0.092951  0.080957      0.005556
  0.086954  0.095949  0.077959      0.005556
  0.086954  0.098947  0.074960      0.005556
  0.086954  0.101946  0.071962      0.005556
  0.086954  0.104944  0.068963      0.005556
  0.086954  0.107943  0.065965      0.005556
  0.086954  0.110941  0.062967      0.005556
  0.086954  0.113939  0.059968      0.005556
  0.086954  0.116938  0.056970      0.005556
  0.086954  0.119936  0.053971      0.005556
  0.086954  0.122935  0.050973      0.005556
  0.086954  0.125933  0.047974      0.005556
  0.086954  0.128931  0.044976      0.005556
  0.086954  0.131930  0.041978      0.005556
  0.086954  0.134928  0.038979      0.005556
  0.086954  0.137927  0.035981      0.005556
  0.086954  0.140925  0.032982      0.005556
  0.086954  0.143923  0.029984      0.005556
  0.086954  0.146922  0.026986      0.005556
  0.086954  0.149920  0.023987      0.005556
  0.086954  0.152919  0.020989      0.005556
  0.086954  0.155917  0.017990      0.005556
  0.086954  0.158916  0.014992      0.005556
  0.086954  0.161914  0.011994      0.005556
  0.086954  0.164912  0.008995      0.005556
  0.086954  0.167911  0.005997      0.005556
  0.086954  0.170909  0.002998      0.005556
  0.086954  0.173908  0.000000      0.005556
  0.086954  0.173908  0.000000      0.005556
  0.083955  0.173908 -0.000000      0.005556
  0.080957  0.173908 -0.000000      0.005556
  0.077959  0.173908  0.000000      0.005556
  0.074960  0.173908 -0.000000      0.005556
  0.071962  0.173908 -0.000000      0.005556
  0.068963  0.173908 -0.000000      0.005556
  0.065965  0.173908 -0.000000      0.005556
  0.062967  0.173908  0.000000      0.005556
  0.059968  0.173908 -0.000000      0.005556
  0.056970  0.173908 -0.000000      0.005556
  0.053971  0.173908  0.000000      0.005556
  0.050973  0.173908  0.000000      0.005556
  0.047974  0.173908 -0.000000      0.005556
  0.044976  0.173908  0.000000      0.005556
  0.041978  0.173908  0.000000      0.005556
  0.038979  0.173908  0.000000      0.005556
  0.035981  0.173908  0.000000      0.005556
  0.032982  0.173908 -0.000000      0.005556
  0.029984  0.173908  0.000000      0.005556
  0.026986  0.173908  0.000000      0.005556
  0.023987  0.173908 -0.000000      0.005556
  0.020989  0.173908  0.000000      0.005556
  0.017990  0.173908 -0.000000      0.005556
  0.014992  0.173908 -0.000000      0.005556
  0.011994  0.173908  0.000000      0.005556
  0.008995  0.173908 -0.000000      0.005556
  0.005997  0.173908 -0.000000      0.005556
  0.002998  0.173908  0.000000      0.005556
  0.000000  0.173908  0.000000      0.005556
 


--------------------------------------------------------------------------------------------------------




 Dimension of arrays:
   k-points           NKPTS =    180   k-points in BZ     NKDIM =    180   number of bands    NBANDS=     16
   number of dos      NEDOS =    301   number of ions     NIONS =      2
   non local maximal  LDIM  =      6   non local SUM 2l+1 LMDIM =     18
   total plane-waves  NPLWV =  27000
   max r-space proj   IRMAX =      1   max aug-charges    IRDMAX=  23702
   dimension x,y,z NGX =    30 NGY =   30 NGZ =   30
   dimension x,y,z NGXF=    60 NGYF=   60 NGZF=   60
   support grid    NGXF=    60 NGYF=   60 NGZF=   60
   ions per type =               1   1
   NGX,Y,Z   is equivalent  to a cutoff of  12.27, 12.27, 12.27 a.u.
   NGXF,Y,Z  is equivalent  to a cutoff of  24.53, 24.53, 24.53 a.u.

 SYSTEM =  unknown system                          
 POSCAR =  Generated by VASPKIT code               

 Startparameter for this run:
   NWRITE =      2    write-flag & timer
   PREC   = accura    normal or accurate (medium, high low for compatibility)
   ISTART =      0    job   : 0-new  1-cont  2-samecut
   ICHARG =     11    charge: 1-file 2-atom 10-const
   ISPIN  =      1    spin polarized calculation?
   LNONCOLLINEAR =      F non collinear calculations
   LSORBIT =      F    spin-orbit coupling
   INIWAV =      1    electr: 0-lowe 1-rand  2-diag
   LASPH  =      F    aspherical Exc in radial PAW
 Electronic Relaxation 1
   ENCUT  =  500.0 eV  36.75 Ry    6.06 a.u.   7.41  7.41  7.41*2*pi/ulx,y,z
   ENINI  =  500.0     initial cutoff
   ENAUG  =  490.7 eV  augmentation charge cutoff
   NELM   =     60;   NELMIN=  2; NELMDL= -5     # of ELM steps 
   EDIFF  = 0.1E-05   stopping-criterion for ELM
   LREAL  =      F    real-space projection
   NLSPLINE    = F    spline interpolate recip. space projectors
   LCOMPAT=      F    compatible to vasp.4.4
   GGA_COMPAT  = T    GGA compatible to vasp.4.4-vasp.4.6
   LMAXPAW     = -100 max onsite density
   LMAXMIX     =    2 max onsite mixed and CHGCAR
   VOSKOWN=      0    Vosko Wilk Nusair interpolation
   ROPT   =    0.00000   0.00000
 Ionic relaxation
   EDIFFG = 0.1E-04   stopping-criterion for IOM
   NSW    =      0    number of steps for IOM
   NBLOCK =      1;   KBLOCK =      1    inner block; outer block 
   IBRION =     -1    ionic relax: 0-MD 1-quasi-New 2-CG
   NFREE  =      0    steps in history (QN), initial steepest desc. (CG)
   ISIF   =      2    stress and relaxation
   IWAVPR =     10    prediction:  0-non 1-charg 2-wave 3-comb
   ISYM   =      2    0-nonsym 1-usesym 2-fastsym
   LCORR  =      T    Harris-Foulkes like correction to forces

   POTIM  = 0.5000    time-step for ionic-motion
   TEIN   =    0.0    initial temperature
   TEBEG  =    0.0;   TEEND  =   0.0 temperature during run
   SMASS  =  -3.00    Nose mass-parameter (am)
   estimated Nose-frequenzy (Omega)   =  0.10E-29 period in steps = 0.13E+47 mass=  -0.378E-27a.u.
   SCALEE = 1.0000    scale energy and forces
   NPACO  =    256;   APACO  = 10.0  distance and # of slots for P.C.
   PSTRESS=    0.0 pullay stress

  Mass of Ions in am
   POMASS =  69.72 74.92
  Ionic Valenz
   ZVAL   =  13.00  5.00
  Atomic Wigner-Seitz radii
   RWIGS  =  -1.00 -1.00
  virtual crystal weights 
   VCA    =   1.00  1.00
   NELECT =      18.0000    total number of electrons
   NUPDOWN=      -1.0000    fix difference up-down

 DOS related values:
   EMIN   =  10.00;   EMAX   =-10.00  energy-range for DOS
   EFERMI =   0.00
   ISMEAR =     0;   SIGMA  =   0.05  broadening in eV -4-tet -1-fermi 0-gaus

 Electronic relaxation 2 (details)
   IALGO  =     38    algorithm
   LDIAG  =      T    sub-space diagonalisation (order eigenvalues)
   LSUBROT=      F    optimize rotation matrix (better conditioning)
   TURBO    =      0    0=normal 1=particle mesh
   IRESTART =      0    0=no restart 2=restart with 2 vectors
   NREBOOT  =      0    no. of reboots
   NMIN     =      0    reboot dimension
   EREF     =   0.00    reference energy to select bands
   IMIX   =      4    mixing-type and parameters
     AMIX     =   0.40;   BMIX     =  1.00
     AMIX_MAG =   1.60;   BMIX_MAG =  1.00
     AMIN     =   0.10
     WC   =   100.;   INIMIX=   1;  MIXPRE=   1;  MAXMIX= -45

 Intra band minimization:
   WEIMIN = 0.0000     energy-eigenvalue tresh-hold
   EBREAK =  0.16E-07  absolut break condition
   DEPER  =   0.30     relativ break condition  

   TIME   =   0.40     timestep for ELM

  volume/ion in A,a.u.               =      23.77       160.38
  Fermi-wavevector in a.u.,A,eV,Ry     =   1.184415  2.238221 19.086796  1.402840
  Thomas-Fermi vector in A             =   2.320630
 
 Write flags
   LWAVE        =      F    write WAVECAR
   LDOWNSAMPLE  =      F    k-point downsampling of WAVECAR
   LCHARG       =      F    write CHGCAR
   LVTOT        =      F    write LOCPOT, total local potential
   LVHAR        =      F    write LOCPOT, Hartree potential only
   LELF         =      F    write electronic localiz. function (ELF)
   LORBIT       =      0    0 simple, 1 ext, 2 COOP (PROOUT), +10 PAW based schemes


 Dipole corrections
   LMONO  =      F    monopole corrections only (constant potential shift)
   LDIPOL =      F    correct potential (dipole corrections)
   IDIPOL =      0    1-x, 2-y, 3-z, 4-all directions 
   EPSILON=  1.0000000 bulk dielectric constant

 Exchange correlation treatment:
   GGA     =    --    GGA type
   LEXCH   =     8    internal setting for exchange type
   LIBXC   =     F    Libxc                    
   VOSKOWN =     0    Vosko Wilk Nusair interpolation
   LHFCALC =     F    Hartree Fock is set to
   LHFONE  =     F    Hartree Fock one center treatment
   AEXX    =    0.0000 exact exchange contribution

 Linear response parameters
   LEPSILON=     F    determine dielectric tensor
   LRPA    =     F    only Hartree local field effects (RPA)
   LNABLA  =     F    use nabla operator in PAW spheres
   LVEL    =     F    velocity operator in full k-point grid
   CSHIFT  =0.1000    complex shift for real part using Kramers Kronig
   OMEGAMAX=  -1.0    maximum frequency
   DEG_THRESHOLD= 0.2000000E-02 threshold for treating states as degnerate
   RTIME   =   -0.100 relaxation time in fs
  (WPLASMAI=    0.000 imaginary part of plasma frequency in eV, 0.658/RTIME)
   DFIELD  = 0.0000000 0.0000000 0.0000000 field for delta impulse in time
 
  Optional k-point grid parameters
   LKPOINTS_OPT  =     F    use optional k-point grid
   KPOINTS_OPT_MODE=     1    mode for optional k-point grid
 
 Orbital magnetization related:
   ORBITALMAG=     F  switch on orbital magnetization
   LCHIMAG   =     F  perturbation theory with respect to B field
   DQ        =  0.001000  dq finite difference perturbation B field
   LLRAUG    =     F  two centre corrections for induced B field



--------------------------------------------------------------------------------------------------------


 Static calculation
 charge density and potential remain constant during run
 non-spin polarized calculation
 Variant of blocked Davidson
 Davidson routine will perform the subspace rotation
 perform sub-space diagonalisation
    after iterative eigenvector-optimisation
 no mixing
 using additional bands            7
 reciprocal scheme for non local part
 use partial core corrections
 calculate Harris-corrections to forces 
   (improved forces if not selfconsistent)
 use gradient corrections 
 WARNING: stress and forces are not correct
  (second derivative of E(xc) not defined)
 use of overlap-Matrix (Vanderbilt PP)
 Gauss-broadening in eV      SIGMA  =   0.05


--------------------------------------------------------------------------------------------------------


  energy-cutoff  :      500.00
  volume of cell :       47.53
      direct lattice vectors                 reciprocal lattice vectors
     0.000000000  2.875091076  2.875091076    -0.173907534  0.173907534  0.173907534
     2.875091076  0.000000000  2.875091076     0.173907534 -0.173907534  0.173907534
     2.875091076  2.875091076  0.000000000     0.173907534  0.173907534 -0.173907534

  length of vectors
     4.065992793  4.065992793  4.065992793     0.301216685  0.301216685  0.301216685


 
 k-points in units of 2pi/SCALE and weight: K-Path Generated by VASPKIT.            
   0.00000000  0.00000000  0.00000000       0.006
   0.00000000  0.00599681 -0.00000000       0.006
   0.00000000  0.01199362 -0.00000000       0.006
  -0.00000000  0.01799043  0.00000000       0.006
   0.00000000  0.02398725 -0.00000000       0.006
   0.00000000  0.02998406 -0.00000000       0.006
  -0.00000000  0.03598087  0.00000000       0.006
  -0.00000000  0.04197768  0.00000000       0.006
   0.00000000  0.04797449 -0.00000000       0.006
  -0.00000000  0.05397130  0.00000000       0.006
   0.00000000  0.05996812 -0.00000000       0.006
   0.00000000  0.06596493 -0.00000000       0.006
  -0.00000000  0.07196174  0.00000000       0.006
  -0.00000000  0.07795855  0.00000000       0.006
  -0.00000000  0.08395536  0.00000000       0.006
   0.00000000  0.08995217 -0.00000000       0.006
   0.00000000  0.09594898 -0.00000000       0.006
   0.00000000  0.10194580 -0.00000000       0.006
  -0.00000000  0.10794261  0.00000000       0.006
  -0.00000000  0.11393942  0.00000000       0.006
   0.00000000  0.11993623 -0.00000000       0.006
  -0.00000000  0.12593304  0.00000000       0.006
   0.00000000  0.13192985 -0.00000000       0.006
   0.00000000  0.13792667 -0.00000000       0.006
  -0.00000000  0.14392348  0.00000000       0.006
   0.00000000  0.14992029 -0.00000000       0.006
  -0.00000000  0.15591710  0.00000000       0.006
   0.00000000  0.16191391 -0.00000000       0.006
  -0.00000000  0.16791072  0.00000000       0.006
   0.00000000  0.17390753  0.00000000       0.006
   0.00000000  0.17390753  0.00000000       0.006
   0.00149920  0.17390753  0.00149920       0.006
   0.00299841  0.17390753  0.00299841       0.006
   0.00449761  0.17390753  0.00449761       0.006
   0.00599681  0.17390753  0.00599681       0.006
   0.00749601  0.17390753  0.00749601       0.006
   0.00899522  0.17390753  0.00899522       0.006
   0.01049442  0.17390753  0.01049442       0.006
   0.01199362  0.17390753  0.01199362       0.006
   0.01349283  0.17390753  0.01349283       0.006
   0.01499203  0.17390753  0.01499203       0.006
   0.01649123  0.17390753  0.01649123       0.006
   0.01799043  0.17390753  0.01799043       0.006
   0.01948964  0.17390753  0.01948964       0.006
   0.02098884  0.17390753  0.02098884       0.006
   0.02248804  0.17390753  0.02248804       0.006
   0.02398725  0.17390753  0.02398725       0.006
   0.02548645  0.17390753  0.02548645       0.006
   0.02698565  0.17390753  0.02698565       0.006
   0.02848485  0.17390753  0.02848485       0.006
   0.02998406  0.17390753  0.02998406       0.006
   0.03148326  0.17390753  0.03148326       0.006
   0.03298246  0.17390753  0.03298246       0.006
   0.03448167  0.17390753  0.03448167       0.006
   0.03598087  0.17390753  0.03598087       0.006
   0.03748007  0.17390753  0.03748007       0.006
   0.03897927  0.17390753  0.03897927       0.006
   0.04047848  0.17390753  0.04047848       0.006
   0.04197768  0.17390753  0.04197768       0.006
   0.04347688  0.17390753  0.04347688       0.006
   0.13043065  0.13043065  0.00000000       0.006
   0.12593304  0.12593304  0.00000000       0.006
   0.12143543  0.12143543 -0.00000000       0.006
   0.11693782  0.11693782 -0.00000000       0.006
   0.11244022  0.11244022  0.00000000       0.006
   0.10794261  0.10794261  0.00000000       0.006
   0.10344500  0.10344500  0.00000000       0.006
   0.09894739  0.09894739  0.00000000       0.006
   0.09444978  0.09444978 -0.00000000       0.006
   0.08995217  0.08995217 -0.00000000       0.006
   0.08545456  0.08545456 -0.00000000       0.006
   0.08095696  0.08095696 -0.00000000       0.006
   0.07645935  0.07645935 -0.00000000       0.006
   0.07196174  0.07196174  0.00000000       0.006
   0.06746413  0.06746413  0.00000000       0.006
   0.06296652  0.06296652  0.00000000       0.006
   0.05846891  0.05846891 -0.00000000       0.006
   0.05397130  0.05397130  0.00000000       0.006
   0.04947370  0.04947370  0.00000000       0.006
   0.04497609  0.04497609 -0.00000000       0.006
   0.04047848  0.04047848  0.00000000       0.006
   0.03598087  0.03598087  0.00000000       0.006
   0.03148326  0.03148326  0.00000000       0.006
   0.02698565  0.02698565  0.00000000       0.006
   0.02248804  0.02248804 -0.00000000       0.006
   0.01799043  0.01799043  0.00000000       0.006
   0.01349283  0.01349283 -0.00000000       0.006
   0.00899522  0.00899522  0.00000000       0.006
   0.00449761  0.00449761 -0.00000000       0.006
   0.00000000  0.00000000  0.00000000       0.006
   0.00000000  0.00000000  0.00000000       0.006
   0.00299841  0.00299841  0.00299841       0.006
   0.00599681  0.00599681  0.00599681       0.006
   0.00899522  0.00899522  0.00899522       0.006
   0.01199362  0.01199362  0.01199362       0.006
   0.01499203  0.01499203  0.01499203       0.006
   0.01799043  0.01799043  0.01799043       0.006
   0.02098884  0.02098884  0.02098884       0.006
   0.02398725  0.02398725  0.02398725       0.006
   0.02698565  0.02698565  0.02698565       0.006
   0.02998406  0.02998406  0.02998406       0.006
   0.03298246  0.03298246  0.03298246       0.006
   0.03598087  0.03598087  0.03598087       0.006
   0.03897927  0.03897927  0.03897927       0.006
   0.04197768  0.04197768  0.04197768       0.006
   0.04497609  0.04497609  0.04497609       0.006
   0.04797449  0.04797449  0.04797449       0.006
   0.05097290  0.05097290  0.05097290       0.006
   0.05397130  0.05397130  0.05397130       0.006
   0.05696971  0.05696971  0.05696971       0.006
   0.05996812  0.05996812  0.05996812       0.006
   0.06296652  0.06296652  0.06296652       0.006
   0.06596493  0.06596493  0.06596493       0.006
   0.06896333  0.06896333  0.06896333       0.006
   0.07196174  0.07196174  0.07196174       0.006
   0.07496014  0.07496014  0.07496014       0.006
   0.07795855  0.07795855  0.07795855       0.006
   0.08095696  0.08095696  0.08095696       0.006
   0.08395536  0.08395536  0.08395536       0.006
   0.08695377  0.08695377  0.08695377       0.006
   0.08695377  0.08695377  0.08695377       0.006
   0.08695377  0.08995217  0.08395536       0.006
   0.08695377  0.09295058  0.08095696       0.006
   0.08695377  0.09594898  0.07795855       0.006
   0.08695377  0.09894739  0.07496014       0.006
   0.08695377  0.10194580  0.07196174       0.006
   0.08695377  0.10494420  0.06896333       0.006
   0.08695377  0.10794261  0.06596493       0.006
   0.08695377  0.11094101  0.06296652       0.006
   0.08695377  0.11393942  0.05996812       0.006
   0.08695377  0.11693782  0.05696971       0.006
   0.08695377  0.11993623  0.05397130       0.006
   0.08695377  0.12293464  0.05097290       0.006
   0.08695377  0.12593304  0.04797449       0.006
   0.08695377  0.12893145  0.04497609       0.006
   0.08695377  0.13192985  0.04197768       0.006
   0.08695377  0.13492826  0.03897927       0.006
   0.08695377  0.13792667  0.03598087       0.006
   0.08695377  0.14092507  0.03298246       0.006
   0.08695377  0.14392348  0.02998406       0.006
   0.08695377  0.14692188  0.02698565       0.006
   0.08695377  0.14992029  0.02398725       0.006
   0.08695377  0.15291869  0.02098884       0.006
   0.08695377  0.15591710  0.01799043       0.006
   0.08695377  0.15891551  0.01499203       0.006
   0.08695377  0.16191391  0.01199362       0.006
   0.08695377  0.16491232  0.00899522       0.006
   0.08695377  0.16791072  0.00599681       0.006
   0.08695377  0.17090913  0.00299841       0.006
   0.08695377  0.17390753  0.00000000       0.006
   0.08695377  0.17390753  0.00000000       0.006
   0.08395536  0.17390753 -0.00000000       0.006
   0.08095696  0.17390753 -0.00000000       0.006
   0.07795855  0.17390753  0.00000000       0.006
   0.07496014  0.17390753 -0.00000000       0.006
   0.07196174  0.17390753 -0.00000000       0.006
   0.06896333  0.17390753 -0.00000000       0.006
   0.06596493  0.17390753 -0.00000000       0.006
   0.06296652  0.17390753  0.00000000       0.006
   0.05996812  0.17390753 -0.00000000       0.006
   0.05696971  0.17390753 -0.00000000       0.006
   0.05397130  0.17390753  0.00000000       0.006
   0.05097290  0.17390753  0.00000000       0.006
   0.04797449  0.17390753 -0.00000000       0.006
   0.04497609  0.17390753  0.00000000       0.006
   0.04197768  0.17390753 -0.00000000       0.006
   0.03897927  0.17390753  0.00000000       0.006
   0.03598087  0.17390753  0.00000000       0.006
   0.03298246  0.17390753 -0.00000000       0.006
   0.02998406  0.17390753  0.00000000       0.006
   0.02698565  0.17390753  0.00000000       0.006
   0.02398725  0.17390753 -0.00000000       0.006
   0.02098884  0.17390753  0.00000000       0.006
   0.01799043  0.17390753  0.00000000       0.006
   0.01499203  0.17390753 -0.00000000       0.006
   0.01199362  0.17390753  0.00000000       0.006
   0.00899522  0.17390753 -0.00000000       0.006
   0.00599681  0.17390753 -0.00000000       0.006
   0.00299841  0.17390753  0.00000000       0.006
   0.00000000  0.17390753  0.00000000       0.006
 
 k-points in reciprocal lattice and weights: K-Path Generated by VASPKIT.            
   0.00000000  0.00000000  0.00000000       0.006
   0.01724138  0.00000000  0.01724138       0.006
   0.03448276  0.00000000  0.03448276       0.006
   0.05172414  0.00000000  0.05172414       0.006
   0.06896552  0.00000000  0.06896552       0.006
   0.08620690  0.00000000  0.08620690       0.006
   0.10344828  0.00000000  0.10344828       0.006
   0.12068966  0.00000000  0.12068966       0.006
   0.13793103  0.00000000  0.13793103       0.006
   0.15517241  0.00000000  0.15517241       0.006
   0.17241379  0.00000000  0.17241379       0.006
   0.18965517  0.00000000  0.18965517       0.006
   0.20689655  0.00000000  0.20689655       0.006
   0.22413793  0.00000000  0.22413793       0.006
   0.24137931  0.00000000  0.24137931       0.006
   0.25862069  0.00000000  0.25862069       0.006
   0.27586207  0.00000000  0.27586207       0.006
   0.29310345  0.00000000  0.29310345       0.006
   0.31034483  0.00000000  0.31034483       0.006
   0.32758621  0.00000000  0.32758621       0.006
   0.34482759  0.00000000  0.34482759       0.006
   0.36206897  0.00000000  0.36206897       0.006
   0.37931034  0.00000000  0.37931034       0.006
   0.39655172  0.00000000  0.39655172       0.006
   0.41379310  0.00000000  0.41379310       0.006
   0.43103448  0.00000000  0.43103448       0.006
   0.44827586  0.00000000  0.44827586       0.006
   0.46551724  0.00000000  0.46551724       0.006
   0.48275862  0.00000000  0.48275862       0.006
   0.50000000  0.00000000  0.50000000       0.006
   0.50000000  0.00000000  0.50000000       0.006
   0.50431034  0.00862069  0.50431034       0.006
   0.50862069  0.01724138  0.50862069       0.006
   0.51293103  0.02586207  0.51293103       0.006
   0.51724138  0.03448276  0.51724138       0.006
   0.52155172  0.04310345  0.52155172       0.006
   0.52586207  0.05172414  0.52586207       0.006
   0.53017241  0.06034483  0.53017241       0.006
   0.53448276  0.06896552  0.53448276       0.006
   0.53879310  0.07758621  0.53879310       0.006
   0.54310345  0.08620690  0.54310345       0.006
   0.54741379  0.09482759  0.54741379       0.006
   0.55172414  0.10344828  0.55172414       0.006
   0.55603448  0.11206897  0.55603448       0.006
   0.56034483  0.12068966  0.56034483       0.006
   0.56465517  0.12931034  0.56465517       0.006
   0.56896552  0.13793103  0.56896552       0.006
   0.57327586  0.14655172  0.57327586       0.006
   0.57758621  0.15517241  0.57758621       0.006
   0.58189655  0.16379310  0.58189655       0.006
   0.58620690  0.17241379  0.58620690       0.006
   0.59051724  0.18103448  0.59051724       0.006
   0.59482759  0.18965517  0.59482759       0.006
   0.59913793  0.19827586  0.59913793       0.006
   0.60344828  0.20689655  0.60344828       0.006
   0.60775862  0.21551724  0.60775862       0.006
   0.61206897  0.22413793  0.61206897       0.006
   0.61637931  0.23275862  0.61637931       0.006
   0.62068966  0.24137931  0.62068966       0.006
   0.62500000  0.25000000  0.62500000       0.006
   0.37500000  0.37500000  0.75000000       0.006
   0.36206897  0.36206897  0.72413793       0.006
   0.34913793  0.34913793  0.69827586       0.006
   0.33620690  0.33620690  0.67241379       0.006
   0.32327586  0.32327586  0.64655172       0.006
   0.31034483  0.31034483  0.62068966       0.006
   0.29741379  0.29741379  0.59482759       0.006
   0.28448276  0.28448276  0.56896552       0.006
   0.27155172  0.27155172  0.54310345       0.006
   0.25862069  0.25862069  0.51724138       0.006
   0.24568966  0.24568966  0.49137931       0.006
   0.23275862  0.23275862  0.46551724       0.006
   0.21982759  0.21982759  0.43965517       0.006
   0.20689655  0.20689655  0.41379310       0.006
   0.19396552  0.19396552  0.38793103       0.006
   0.18103448  0.18103448  0.36206897       0.006
   0.16810345  0.16810345  0.33620690       0.006
   0.15517241  0.15517241  0.31034483       0.006
   0.14224138  0.14224138  0.28448276       0.006
   0.12931034  0.12931034  0.25862069       0.006
   0.11637931  0.11637931  0.23275862       0.006
   0.10344828  0.10344828  0.20689655       0.006
   0.09051724  0.09051724  0.18103448       0.006
   0.07758621  0.07758621  0.15517241       0.006
   0.06465517  0.06465517  0.12931034       0.006
   0.05172414  0.05172414  0.10344828       0.006
   0.03879310  0.03879310  0.07758621       0.006
   0.02586207  0.02586207  0.05172414       0.006
   0.01293103  0.01293103  0.02586207       0.006
   0.00000000  0.00000000  0.00000000       0.006
   0.00000000  0.00000000  0.00000000       0.006
   0.01724138  0.01724138  0.01724138       0.006
   0.03448276  0.03448276  0.03448276       0.006
   0.05172414  0.05172414  0.05172414       0.006
   0.06896552  0.06896552  0.06896552       0.006
   0.08620690  0.08620690  0.08620690       0.006
   0.10344828  0.10344828  0.10344828       0.006
   0.12068966  0.12068966  0.12068966       0.006
   0.13793103  0.13793103  0.13793103       0.006
   0.15517241  0.15517241  0.15517241       0.006
   0.17241379  0.17241379  0.17241379       0.006
   0.18965517  0.18965517  0.18965517       0.006
   0.20689655  0.20689655  0.20689655       0.006
   0.22413793  0.22413793  0.22413793       0.006
   0.24137931  0.24137931  0.24137931       0.006
   0.25862069  0.25862069  0.25862069       0.006
   0.27586207  0.27586207  0.27586207       0.006
   0.29310345  0.29310345  0.29310345       0.006
   0.31034483  0.31034483  0.31034483       0.006
   0.32758621  0.32758621  0.32758621       0.006
   0.34482759  0.34482759  0.34482759       0.006
   0.36206897  0.36206897  0.36206897       0.006
   0.37931034  0.37931034  0.37931034       0.006
   0.39655172  0.39655172  0.39655172       0.006
   0.41379310  0.41379310  0.41379310       0.006
   0.43103448  0.43103448  0.43103448       0.006
   0.44827586  0.44827586  0.44827586       0.006
   0.46551724  0.46551724  0.46551724       0.006
   0.48275862  0.48275862  0.48275862       0.006
   0.50000000  0.50000000  0.50000000       0.006
   0.50000000  0.50000000  0.50000000       0.006
   0.50000000  0.49137931  0.50862069       0.006
   0.50000000  0.48275862  0.51724138       0.006
   0.50000000  0.47413793  0.52586207       0.006
   0.50000000  0.46551724  0.53448276       0.006
   0.50000000  0.45689655  0.54310345       0.006
   0.50000000  0.44827586  0.55172414       0.006
   0.50000000  0.43965517  0.56034483       0.006
   0.50000000  0.43103448  0.56896552       0.006
   0.50000000  0.42241379  0.57758621       0.006
   0.50000000  0.41379310  0.58620690       0.006
   0.50000000  0.40517241  0.59482759       0.006
   0.50000000  0.39655172  0.60344828       0.006
   0.50000000  0.38793103  0.61206897       0.006
   0.50000000  0.37931034  0.62068966       0.006
   0.50000000  0.37068966  0.62931034       0.006
   0.50000000  0.36206897  0.63793103       0.006
   0.50000000  0.35344828  0.64655172       0.006
   0.50000000  0.34482759  0.65517241       0.006
   0.50000000  0.33620690  0.66379310       0.006
   0.50000000  0.32758621  0.67241379       0.006
   0.50000000  0.31896552  0.68103448       0.006
   0.50000000  0.31034483  0.68965517       0.006
   0.50000000  0.30172414  0.69827586       0.006
   0.50000000  0.29310345  0.70689655       0.006
   0.50000000  0.28448276  0.71551724       0.006
   0.50000000  0.27586207  0.72413793       0.006
   0.50000000  0.26724138  0.73275862       0.006
   0.50000000  0.25862069  0.74137931       0.006
   0.50000000  0.25000000  0.75000000       0.006
   0.50000000  0.25000000  0.75000000       0.006
   0.50000000  0.24137931  0.74137931       0.006
   0.50000000  0.23275862  0.73275862       0.006
   0.50000000  0.22413793  0.72413793       0.006
   0.50000000  0.21551724  0.71551724       0.006
   0.50000000  0.20689655  0.70689655       0.006
   0.50000000  0.19827586  0.69827586       0.006
   0.50000000  0.18965517  0.68965517       0.006
   0.50000000  0.18103448  0.68103448       0.006
   0.50000000  0.17241379  0.67241379       0.006
   0.50000000  0.16379310  0.66379310       0.006
   0.50000000  0.15517241  0.65517241       0.006
   0.50000000  0.14655172  0.64655172       0.006
   0.50000000  0.13793103  0.63793103       0.006
   0.50000000  0.12931034  0.62931034       0.006
   0.50000000  0.12068966  0.62068966       0.006
   0.50000000  0.11206897  0.61206897       0.006
   0.50000000  0.10344828  0.60344828       0.006
   0.50000000  0.09482759  0.59482759       0.006
   0.50000000  0.08620690  0.58620690       0.006
   0.50000000  0.07758621  0.57758621       0.006
   0.50000000  0.06896552  0.56896552       0.006
   0.50000000  0.06034483  0.56034483       0.006
   0.50000000  0.05172414  0.55172414       0.006
   0.50000000  0.04310345  0.54310345       0.006
   0.50000000  0.03448276  0.53448276       0.006
   0.50000000  0.02586207  0.52586207       0.006
   0.50000000  0.01724138  0.51724138       0.006
   0.50000000  0.00862069  0.50862069       0.006
   0.50000000  0.00000000  0.50000000       0.006
 
 position of ions in fractional coordinates (direct lattice) 
   0.00000000  0.00000000  0.00000000
   0.25000000  0.25000000  0.25000000
 
 position of ions in cartesian coordinates  (Angst):
   0.00000000  0.00000000  0.00000000
   1.43754554  1.43754554  1.43754554
 


--------------------------------------------------------------------------------------------------------


 k-point   1 :   0.0000 0.0000 0.0000  plane waves:    1243
 k-point   2 :   0.0172 0.0000 0.0172  plane waves:    1243
 k-point   3 :   0.0345 0.0000 0.0345  plane waves:    1243
 k-point   4 :   0.0517 0.0000 0.0517  plane waves:    1239
 k-point   5 :   0.0690 0.0000 0.0690  plane waves:    1239
 k-point   6 :   0.0862 0.0000 0.0862  plane waves:    1227
 k-point   7 :   0.1034 0.0000 0.1034  plane waves:    1219
 k-point   8 :   0.1207 0.0000 0.1207  plane waves:    1219
 k-point   9 :   0.1379 0.0000 0.1379  plane waves:    1219
 k-point  10 :   0.1552 0.0000 0.1552  plane waves:    1219
 k-point  11 :   0.1724 0.0000 0.1724  plane waves:    1219
 k-point  12 :   0.1897 0.0000 0.1897  plane waves:    1211
 k-point  13 :   0.2069 0.0000 0.2069  plane waves:    1219
 k-point  14 :   0.2241 0.0000 0.2241  plane waves:    1211
 k-point  15 :   0.2414 0.0000 0.2414  plane waves:    1199
 k-point  16 :   0.2586 0.0000 0.2586  plane waves:    1198
 k-point  17 :   0.2759 0.0000 0.2759  plane waves:    1222
 k-point  18 :   0.2931 0.0000 0.2931  plane waves:    1222
 k-point  19 :   0.3103 0.0000 0.3103  plane waves:    1218
 k-point  20 :   0.3276 0.0000 0.3276  plane waves:    1218
 k-point  21 :   0.3448 0.0000 0.3448  plane waves:    1218
 k-point  22 :   0.3621 0.0000 0.3621  plane waves:    1218
 k-point  23 :   0.3793 0.0000 0.3793  plane waves:    1206
 k-point  24 :   0.3966 0.0000 0.3966  plane waves:    1202
 k-point  25 :   0.4138 0.0000 0.4138  plane waves:    1198
 k-point  26 :   0.4310 0.0000 0.4310  plane waves:    1210
 k-point  27 :   0.4483 0.0000 0.4483  plane waves:    1210
 k-point  28 :   0.4655 0.0000 0.4655  plane waves:    1210
 k-point  29 :   0.4828 0.0000 0.4828  plane waves:    1210
 k-point  30 :   0.5000 0.0000 0.5000  plane waves:    1186
 k-point  31 :   0.5000 0.0000 0.5000  plane waves:    1186
 k-point  32 :   0.5043 0.0086 0.5043  plane waves:    1194
 k-point  33 :   0.5086 0.0172 0.5086  plane waves:    1202
 k-point  34 :   0.5129 0.0259 0.5129  plane waves:    1210
 k-point  35 :   0.5172 0.0345 0.5172  plane waves:    1206
 k-point  36 :   0.5216 0.0431 0.5216  plane waves:    1206
 k-point  37 :   0.5259 0.0517 0.5259  plane waves:    1202
 k-point  38 :   0.5302 0.0603 0.5302  plane waves:    1202
 k-point  39 :   0.5345 0.0690 0.5345  plane waves:    1202
 k-point  40 :   0.5388 0.0776 0.5388  plane waves:    1202
 k-point  41 :   0.5431 0.0862 0.5431  plane waves:    1202
 k-point  42 :   0.5474 0.0948 0.5474  plane waves:    1202
 k-point  43 :   0.5517 0.1034 0.5517  plane waves:    1202
 k-point  44 :   0.5560 0.1121 0.5560  plane waves:    1202
 k-point  45 :   0.5603 0.1207 0.5603  plane waves:    1202
 k-point  46 :   0.5647 0.1293 0.5647  plane waves:    1202
 k-point  47 :   0.5690 0.1379 0.5690  plane waves:    1206
 k-point  48 :   0.5733 0.1466 0.5733  plane waves:    1204
 k-point  49 :   0.5776 0.1552 0.5776  plane waves:    1206
 k-point  50 :   0.5819 0.1638 0.5819  plane waves:    1202
 k-point  51 :   0.5862 0.1724 0.5862  plane waves:    1202
 k-point  52 :   0.5905 0.1810 0.5905  plane waves:    1202
 k-point  53 :   0.5948 0.1897 0.5948  plane waves:    1202
 k-point  54 :   0.5991 0.1983 0.5991  plane waves:    1212
 k-point  55 :   0.6034 0.2069 0.6034  plane waves:    1200
 k-point  56 :   0.6078 0.2155 0.6078  plane waves:    1202
 k-point  57 :   0.6121 0.2241 0.6121  plane waves:    1202
 k-point  58 :   0.6164 0.2328 0.6164  plane waves:    1202
 k-point  59 :   0.6207 0.2414 0.6207  plane waves:    1202
 k-point  60 :   0.6250 0.2500 0.6250  plane waves:    1202
 k-point  61 :   0.3750 0.3750 0.7500  plane waves:    1202
 k-point  62 :   0.3621 0.3621 0.7241  plane waves:    1210
 k-point  63 :   0.3491 0.3491 0.6983  plane waves:    1204
 k-point  64 :   0.3362 0.3362 0.6724  plane waves:    1196
 k-point  65 :   0.3233 0.3233 0.6466  plane waves:    1196
 k-point  66 :   0.3103 0.3103 0.6207  plane waves:    1204
 k-point  67 :   0.2974 0.2974 0.5948  plane waves:    1204
 k-point  68 :   0.2845 0.2845 0.5690  plane waves:    1199
 k-point  69 :   0.2716 0.2716 0.5431  plane waves:    1201
 k-point  70 :   0.2586 0.2586 0.5172  plane waves:    1203
 k-point  71 :   0.2457 0.2457 0.4914  plane waves:    1203
 k-point  72 :   0.2328 0.2328 0.4655  plane waves:    1203
 k-point  73 :   0.2198 0.2198 0.4397  plane waves:    1203
 k-point  74 :   0.2069 0.2069 0.4138  plane waves:    1207
 k-point  75 :   0.1940 0.1940 0.3879  plane waves:    1207
 k-point  76 :   0.1810 0.1810 0.3621  plane waves:    1205
 k-point  77 :   0.1681 0.1681 0.3362  plane waves:    1213
 k-point  78 :   0.1552 0.1552 0.3103  plane waves:    1213
 k-point  79 :   0.1422 0.1422 0.2845  plane waves:    1221
 k-point  80 :   0.1293 0.1293 0.2586  plane waves:    1217
 k-point  81 :   0.1164 0.1164 0.2328  plane waves:    1223
 k-point  82 :   0.1034 0.1034 0.2069  plane waves:    1219
 k-point  83 :   0.0905 0.0905 0.1810  plane waves:    1215
 k-point  84 :   0.0776 0.0776 0.1552  plane waves:    1219
 k-point  85 :   0.0647 0.0647 0.1293  plane waves:    1227
 k-point  86 :   0.0517 0.0517 0.1034  plane waves:    1231
 k-point  87 :   0.0388 0.0388 0.0776  plane waves:    1243
 k-point  88 :   0.0259 0.0259 0.0517  plane waves:    1243
 k-point  89 :   0.0129 0.0129 0.0259  plane waves:    1243
 k-point  90 :   0.0000 0.0000 0.0000  plane waves:    1243
 k-point  91 :   0.0000 0.0000 0.0000  plane waves:    1243
 k-point  92 :   0.0172 0.0172 0.0172  plane waves:    1243
 k-point  93 :   0.0345 0.0345 0.0345  plane waves:    1243
 k-point  94 :   0.0517 0.0517 0.0517  plane waves:    1243
 k-point  95 :   0.0690 0.0690 0.0690  plane waves:    1239
 k-point  96 :   0.0862 0.0862 0.0862  plane waves:    1236
 k-point  97 :   0.1034 0.1034 0.1034  plane waves:    1224
 k-point  98 :   0.1207 0.1207 0.1207  plane waves:    1218
 k-point  99 :   0.1379 0.1379 0.1379  plane waves:    1215
 k-point 100 :   0.1552 0.1552 0.1552  plane waves:    1215
 k-point 101 :   0.1724 0.1724 0.1724  plane waves:    1221
 k-point 102 :   0.1897 0.1897 0.1897  plane waves:    1215
 k-point 103 :   0.2069 0.2069 0.2069  plane waves:    1215
 k-point 104 :   0.2241 0.2241 0.2241  plane waves:    1221
 k-point 105 :   0.2414 0.2414 0.2414  plane waves:    1215
 k-point 106 :   0.2586 0.2586 0.2586  plane waves:    1215
 k-point 107 :   0.2759 0.2759 0.2759  plane waves:    1209
 k-point 108 :   0.2931 0.2931 0.2931  plane waves:    1209
 k-point 109 :   0.3103 0.3103 0.3103  plane waves:    1209
 k-point 110 :   0.3276 0.3276 0.3276  plane waves:    1218
 k-point 111 :   0.3448 0.3448 0.3448  plane waves:    1212
 k-point 112 :   0.3621 0.3621 0.3621  plane waves:    1203
 k-point 113 :   0.3793 0.3793 0.3793  plane waves:    1203
 k-point 114 :   0.3966 0.3966 0.3966  plane waves:    1203
 k-point 115 :   0.4138 0.4138 0.4138  plane waves:    1194
 k-point 116 :   0.4310 0.4310 0.4310  plane waves:    1191
 k-point 117 :   0.4483 0.4483 0.4483  plane waves:    1197
 k-point 118 :   0.4655 0.4655 0.4655  plane waves:    1194
 k-point 119 :   0.4828 0.4828 0.4828  plane waves:    1194
 k-point 120 :   0.5000 0.5000 0.5000  plane waves:    1194
 k-point 121 :   0.5000 0.5000 0.5000  plane waves:    1194
 k-point 122 :   0.5000 0.4914 0.5086  plane waves:    1194
 k-point 123 :   0.5000 0.4828 0.5172  plane waves:    1198
 k-point 124 :   0.5000 0.4741 0.5259  plane waves:    1200
 k-point 125 :   0.5000 0.4655 0.5345  plane waves:    1200
 k-point 126 :   0.5000 0.4569 0.5431  plane waves:    1198
 k-point 127 :   0.5000 0.4483 0.5517  plane waves:    1194
 k-point 128 :   0.5000 0.4397 0.5603  plane waves:    1200
 k-point 129 :   0.5000 0.4310 0.5690  plane waves:    1198
 k-point 130 :   0.5000 0.4224 0.5776  plane waves:    1200
 k-point 131 :   0.5000 0.4138 0.5862  plane waves:    1198
 k-point 132 :   0.5000 0.4052 0.5948  plane waves:    1200
 k-point 133 :   0.5000 0.3966 0.6034  plane waves:    1206
 k-point 134 :   0.5000 0.3879 0.6121  plane waves:    1204
 k-point 135 :   0.5000 0.3793 0.6207  plane waves:    1204
 k-point 136 :   0.5000 0.3707 0.6293  plane waves:    1202
 k-point 137 :   0.5000 0.3621 0.6379  plane waves:    1202
 k-point 138 :   0.5000 0.3534 0.6466  plane waves:    1200
 k-point 139 :   0.5000 0.3448 0.6552  plane waves:    1200
 k-point 140 :   0.5000 0.3362 0.6638  plane waves:    1198
 k-point 141 :   0.5000 0.3276 0.6724  plane waves:    1198
 k-point 142 :   0.5000 0.3190 0.6810  plane waves:    1200
 k-point 143 :   0.5000 0.3103 0.6897  plane waves:    1200
 k-point 144 :   0.5000 0.3017 0.6983  plane waves:    1204
 k-point 145 :   0.5000 0.2931 0.7069  plane waves:    1202
 k-point 146 :   0.5000 0.2845 0.7155  plane waves:    1200
 k-point 147 :   0.5000 0.2759 0.7241  plane waves:    1206
 k-point 148 :   0.5000 0.2672 0.7328  plane waves:    1210
 k-point 149 :   0.5000 0.2586 0.7414  plane waves:    1216
 k-point 150 :   0.5000 0.2500 0.7500  plane waves:    1216
 k-point 151 :   0.5000 0.2500 0.7500  plane waves:    1216
 k-point 152 :   0.5000 0.2414 0.7414  plane waves:    1216
 k-point 153 :   0.5000 0.2328 0.7328  plane waves:    1216
 k-point 154 :   0.5000 0.2241 0.7241  plane waves:    1208
 k-point 155 :   0.5000 0.2155 0.7155  plane waves:    1210
 k-point 156 :   0.5000 0.2069 0.7069  plane waves:    1206
 k-point 157 :   0.5000 0.1983 0.6983  plane waves:    1202
 k-point 158 :   0.5000 0.1897 0.6897  plane waves:    1202
 k-point 159 :   0.5000 0.1810 0.6810  plane waves:    1204
 k-point 160 :   0.5000 0.1724 0.6724  plane waves:    1200
 k-point 161 :   0.5000 0.1638 0.6638  plane waves:    1200
 k-point 162 :   0.5000 0.1552 0.6552  plane waves:    1200
 k-point 163 :   0.5000 0.1466 0.6466  plane waves:    1196
 k-point 164 :   0.5000 0.1379 0.6379  plane waves:    1196
 k-point 165 :   0.5000 0.1293 0.6293  plane waves:    1196
 k-point 166 :   0.5000 0.1207 0.6207  plane waves:    1200
 k-point 167 :   0.5000 0.1121 0.6121  plane waves:    1200
 k-point 168 :   0.5000 0.1034 0.6034  plane waves:    1206
 k-point 169 :   0.5000 0.0948 0.5948  plane waves:    1204
 k-point 170 :   0.5000 0.0862 0.5862  plane waves:    1204
 k-point 171 :   0.5000 0.0776 0.5776  plane waves:    1200
 k-point 172 :   0.5000 0.0690 0.5690  plane waves:    1200
 k-point 173 :   0.5000 0.0603 0.5603  plane waves:    1200
 k-point 174 :   0.5000 0.0517 0.5517  plane waves:    1200
 k-point 175 :   0.5000 0.0431 0.5431  plane waves:    1200
 k-point 176 :   0.5000 0.0345 0.5345  plane waves:    1204
 k-point 177 :   0.5000 0.0259 0.5259  plane waves:    1208
 k-point 178 :   0.5000 0.0172 0.5172  plane waves:    1206
 k-point 179 :   0.5000 0.0086 0.5086  plane waves:    1206
 k-point 180 :   0.5000 0.0000 0.5000  plane waves:    1186

 maximum and minimum number of plane-waves per node :       326      289

 maximum number of plane-waves:      1243
 maximum index in each direction: 
   IXMAX=    7   IYMAX=    7   IZMAX=    7
   IXMIN=   -8   IYMIN=   -7   IZMIN=   -8


 parallel 3D FFT for wavefunctions:
    minimum data exchange during FFTs selected (reduces bandwidth)
 parallel 3D FFT for charge:
    minimum data exchange during FFTs selected (reduces bandwidth)


 total amount of memory used by VASP MPI-rank0    51840. kBytes
=======================================================================

   base      :      30000. kBytes
   nonl-proj :      16184. kBytes
   fftplans  :        700. kBytes
   grid      :       1117. kBytes
   one-center:         15. kBytes
   wavefun   :       3824. kBytes
 
     INWAV:  cpu time      0.0000: real time      0.0000
 initial charge density was supplied:
 number of electron      17.9999988 magnetization 
 keeping initial charge density in first step


--------------------------------------------------------------------------------------------------------


 Maximum index for augmentation-charges         1571 (set IRDMAX)


--------------------------------------------------------------------------------------------------------


 First call to EWALD:  gamma=   0.489
 Maximum number of real-space cells 3x 3x 3
 Maximum number of reciprocal cells 3x 3x 3

    FEWALD:  cpu time      0.0012: real time      0.0012


--------------------------------------- Iteration      1(   1)  ---------------------------------------


    POTLOK:  cpu time      0.0070: real time      0.0071
    SETDIJ:  cpu time      0.0026: real time      0.0026
     EDDAV:  cpu time      1.2171: real time      1.2583
       DOS:  cpu time      0.0024: real time      0.0024
    --------------------------------------------
      LOOP:  cpu time      1.2291: real time      1.2704

 eigenvalue-minimisations  :  5816
 total energy-change (2. order) : 0.8415306E+02  (-0.8755837E+03)
 number of electron      17.9999988 magnetization 
 augmentation part       17.9999988 magnetization 

 Free energy of the ion-electron system (eV)
  ---------------------------------------------------
  alpha Z        PSCENC =        57.30385414
  Ewald energy   TEWEN  =     -1244.24610148
  -Hartree energ DENC   =      -734.14633481
  -exchange      EXHF   =         0.00000000
  -V(xc)+E(xc)   XCENC  =        32.27811114
  PAW double counting   =      1976.44801128    -2289.39365135
  entropy T*S    EENTRO =        -0.00074138
  eigenvalues    EBANDS =       -33.10342339
  atomic energy  EATOM  =      2319.01333462
  Solvation  Ediel_sol  =         0.00000000
  ---------------------------------------------------
  free energy    TOTEN  =        84.15305878 eV

  energy without entropy =       84.15380015  energy(sigma->0) =       84.15342947


--------------------------------------------------------------------------------------------------------




--------------------------------------- Iteration      1(   2)  ---------------------------------------


     EDDAV:  cpu time      1.3066: real time      1.3517
       DOS:  cpu time      0.0017: real time      0.0017
    --------------------------------------------
      LOOP:  cpu time      1.3083: real time      1.3534

 eigenvalue-minimisations  :  6488
 total energy-change (2. order) :-0.8435947E+02  (-0.8013501E+02)
 number of electron      17.9999988 magnetization 
 augmentation part       17.9999988 magnetization 

 Free energy of the ion-electron system (eV)
  ---------------------------------------------------
  alpha Z        PSCENC =        57.30385414
  Ewald energy   TEWEN  =     -1244.24610148
  -Hartree energ DENC   =      -734.14633481
  -exchange      EXHF   =         0.00000000
  -V(xc)+E(xc)   XCENC  =        32.27811114
  PAW double counting   =      1976.44801128    -2289.39365135
  entropy T*S    EENTRO =        -0.00020348
  eigenvalues    EBANDS =      -117.46342805
  atomic energy  EATOM  =      2319.01333462
  Solvation  Ediel_sol  =         0.00000000
  ---------------------------------------------------
  free energy    TOTEN  =        -0.20640799 eV

  energy without entropy =       -0.20620451  energy(sigma->0) =       -0.20630625


--------------------------------------------------------------------------------------------------------




--------------------------------------- Iteration      1(   3)  ---------------------------------------


     EDDAV:  cpu time      1.4052: real time      1.4534
       DOS:  cpu time      0.0015: real time      0.0015
    --------------------------------------------
      LOOP:  cpu time      1.4067: real time      1.4549

 eigenvalue-minimisations  :  7136
 total energy-change (2. order) :-0.6510159E+01  (-0.6477716E+01)
 number of electron      17.9999988 magnetization 
 augmentation part       17.9999988 magnetization 

 Free energy of the ion-electron system (eV)
  ---------------------------------------------------
  alpha Z        PSCENC =        57.30385414
  Ewald energy   TEWEN  =     -1244.24610148
  -Hartree energ DENC   =      -734.14633481
  -exchange      EXHF   =         0.00000000
  -V(xc)+E(xc)   XCENC  =        32.27811114
  PAW double counting   =      1976.44801128    -2289.39365135
  entropy T*S    EENTRO =        -0.00032152
  eigenvalues    EBANDS =      -123.97346866
  atomic energy  EATOM  =      2319.01333462
  Solvation  Ediel_sol  =         0.00000000
  ---------------------------------------------------
  free energy    TOTEN  =        -6.71656664 eV

  energy without entropy =       -6.71624512  energy(sigma->0) =       -6.71640588


--------------------------------------------------------------------------------------------------------




--------------------------------------- Iteration      1(   4)  ---------------------------------------


     EDDAV:  cpu time      1.3994: real time      1.4471
       DOS:  cpu time      0.0016: real time      0.0017
    --------------------------------------------
      LOOP:  cpu time      1.4010: real time      1.4487

 eigenvalue-minimisations  :  7088
 total energy-change (2. order) :-0.9940752E-01  (-0.9935881E-01)
 number of electron      17.9999988 magnetization 
 augmentation part       17.9999988 magnetization 

 Free energy of the ion-electron system (eV)
  ---------------------------------------------------
  alpha Z        PSCENC =        57.30385414
  Ewald energy   TEWEN  =     -1244.24610148
  -Hartree energ DENC   =      -734.14633481
  -exchange      EXHF   =         0.00000000
  -V(xc)+E(xc)   XCENC  =        32.27811114
  PAW double counting   =      1976.44801128    -2289.39365135
  entropy T*S    EENTRO =        -0.00024649
  eigenvalues    EBANDS =      -124.07295122
  atomic energy  EATOM  =      2319.01333462
  Solvation  Ediel_sol  =         0.00000000
  ---------------------------------------------------
  free energy    TOTEN  =        -6.81597416 eV

  energy without entropy =       -6.81572768  energy(sigma->0) =       -6.81585092


--------------------------------------------------------------------------------------------------------




--------------------------------------- Iteration      1(   5)  ---------------------------------------


     EDDAV:  cpu time      1.4497: real time      1.4988
       DOS:  cpu time      0.0016: real time      0.0016
    --------------------------------------------
      LOOP:  cpu time      1.4513: real time      1.5003

 eigenvalue-minimisations  :  7352
 total energy-change (2. order) :-0.1383780E-02  (-0.1383740E-02)
 number of electron      17.9999988 magnetization 
 augmentation part       17.9999988 magnetization 

 Free energy of the ion-electron system (eV)
  ---------------------------------------------------
  alpha Z        PSCENC =        57.30385414
  Ewald energy   TEWEN  =     -1244.24610148
  -Hartree energ DENC   =      -734.14633481
  -exchange      EXHF   =         0.00000000
  -V(xc)+E(xc)   XCENC  =        32.27811114
  PAW double counting   =      1976.44801128    -2289.39365135
  entropy T*S    EENTRO =        -0.00024606
  eigenvalues    EBANDS =      -124.07433542
  atomic energy  EATOM  =      2319.01333462
  Solvation  Ediel_sol  =         0.00000000
  ---------------------------------------------------
  free energy    TOTEN  =        -6.81735794 eV

  energy without entropy =       -6.81711188  energy(sigma->0) =       -6.81723491


--------------------------------------------------------------------------------------------------------




--------------------------------------- Iteration      1(   6)  ---------------------------------------


     EDDAV:  cpu time      1.5685: real time      1.6216
       DOS:  cpu time      0.0016: real time      0.0016
    --------------------------------------------
      LOOP:  cpu time      1.5701: real time      1.6232

 eigenvalue-minimisations  :  8336
 total energy-change (2. order) :-0.5322863E-04  (-0.5322879E-04)
 number of electron      17.9999988 magnetization 
 augmentation part       17.9999988 magnetization 

 Free energy of the ion-electron system (eV)
  ---------------------------------------------------
  alpha Z        PSCENC =        57.30385414
  Ewald energy   TEWEN  =     -1244.24610148
  -Hartree energ DENC   =      -734.14633481
  -exchange      EXHF   =         0.00000000
  -V(xc)+E(xc)   XCENC  =        32.27811114
  PAW double counting   =      1976.44801128    -2289.39365135
  entropy T*S    EENTRO =        -0.00024603
  eigenvalues    EBANDS =      -124.07438868
  atomic energy  EATOM  =      2319.01333462
  Solvation  Ediel_sol  =         0.00000000
  ---------------------------------------------------
  free energy    TOTEN  =        -6.81741117 eV

  energy without entropy =       -6.81716514  energy(sigma->0) =       -6.81728815


--------------------------------------------------------------------------------------------------------




--------------------------------------- Iteration      1(   7)  ---------------------------------------


     EDDAV:  cpu time      1.4049: real time      1.4520
       DOS:  cpu time      0.0014: real time      0.0014
    --------------------------------------------
      LOOP:  cpu time      1.4063: real time      1.4534

 eigenvalue-minimisations  :  6904
 total energy-change (2. order) :-0.4048973E-06  (-0.4049897E-06)
[...]
      1     -11.3427      2.00000
      2     -11.2239      2.00000
      3     -11.2177      2.00000
      4     -11.2021      2.00000
      5     -11.1804      2.00000
      6      -6.5935      2.00000
      7      -3.0301      2.00000
      8       0.4669      2.00000
      9       0.5793      2.00000
     10       6.2572      0.00000
     11       6.3674      0.00000
     12      11.0503      0.00000
     13      11.2819      0.00000
     14      14.0884      0.00000
     15      15.3639      0.00000
     16      16.4898      0.00000

 k-point   165 :       0.5000    0.1293    0.6293
  band No.  band energies     occupation 
      1     -11.3433      2.00000
      2     -11.2231      2.00000
      3     -11.2176      2.00000
      4     -11.2027      2.00000
      5     -11.1800      2.00000
      6      -6.5960      2.00000
      7      -3.0391      2.00000
      8       0.5083      2.00000
      9       0.6107      2.00000
     10       6.1230      0.00000
     11       6.2383      0.00000
     12      11.2513      0.00000
     13      11.4601      0.00000
     14      14.0818      0.00000
     15      15.3762      0.00000
     16      16.4948      0.00000

 k-point   166 :       0.5000    0.1207    0.6207
  band No.  band energies     occupation 
      1     -11.3439      2.00000
      2     -11.2223      2.00000
      3     -11.2174      2.00000
      4     -11.2032      2.00000
      5     -11.1796      2.00000
      6      -6.5986      2.00000
      7      -3.0481      2.00000
      8       0.5506      2.00000
      9       0.6429      2.00000
     10       5.9945      0.00000
     11       6.1136      0.00000
     12      11.4502      0.00000
     13      11.6365      0.00000
     14      14.0752      0.00000
     15      15.3915      0.00000
     16      16.5009      0.00000

 k-point   167 :       0.5000    0.1121    0.6121
  band No.  band energies     occupation 
      1     -11.3445      2.00000
      2     -11.2215      2.00000
      3     -11.2173      2.00000
      4     -11.2038      2.00000
      5     -11.1793      2.00000
      6      -6.6011      2.00000
      7      -3.0569      2.00000
      8       0.5935      2.00000
      9       0.6756      2.00000
     10       5.8720      0.00000
     11       5.9938      0.00000
     12      11.6463      0.00000
     13      11.8103      0.00000
     14      14.0684      0.00000
     15      15.4103      0.00000
     16      16.5072      0.00000

 k-point   168 :       0.5000    0.1034    0.6034
  band No.  band energies     occupation 
      1     -11.3451      2.00000
      2     -11.2207      2.00000
      3     -11.2171      2.00000
      4     -11.2043      2.00000
      5     -11.1790      2.00000
      6      -6.6035      2.00000
      7      -3.0655      2.00000
      8       0.6364      2.00000
      9       0.7085      2.00000
     10       5.7558      0.00000
     11       5.8795      0.00000
     12      11.8384      0.00000
     13      11.9803      0.00000
     14      14.0616      0.00000
     15      15.4333      0.00000
     16      16.5478      0.00000

 k-point   169 :       0.5000    0.0948    0.5948
  band No.  band energies     occupation 
      1     -11.3457      2.00000
      2     -11.2199      2.00000
      3     -11.2169      2.00000
      4     -11.2049      2.00000
      5     -11.1787      2.00000
      6      -6.6059      2.00000
      7      -3.0737      2.00000
      8       0.6789      2.00000
      9       0.7413      2.00000
     10       5.6465      0.00000
     11       5.7712      0.00000
     12      12.0253      0.00000
     13      12.1457      0.00000
     14      14.0548      0.00000
     15      15.4616      0.00000
     16      16.5176      0.00000

 k-point   170 :       0.5000    0.0862    0.5862
  band No.  band energies     occupation 
      1     -11.3462      2.00000
      2     -11.2192      2.00000
      3     -11.2167      2.00000
      4     -11.2054      2.00000
      5     -11.1784      2.00000
      6      -6.6082      2.00000
      7      -3.0814      2.00000
      8       0.7204      2.00000
      9       0.7733      2.00000
     10       5.5445      0.00000
     11       5.6696      0.00000
     12      12.2056      0.00000
     13      12.3052      0.00000
     14      14.0480      0.00000
     15      15.4960      0.00000
     16      16.5221      0.00000

 k-point   171 :       0.5000    0.0776    0.5776
  band No.  band energies     occupation 
      1     -11.3467      2.00000
      2     -11.2185      2.00000
      3     -11.2165      2.00000
      4     -11.2058      2.00000
      5     -11.1781      2.00000
      6      -6.6103      2.00000
      7      -3.0887      2.00000
      8       0.7603      2.00000
      9       0.8044      2.00000
     10       5.4502      0.00000
     11       5.5751      0.00000
     12      12.3778      0.00000
     13      12.4576      0.00000
     14      14.0412      0.00000
     15      15.5376      0.00000
     16      16.5482      0.00000

 k-point   172 :       0.5000    0.0690    0.5690
  band No.  band energies     occupation 
      1     -11.3471      2.00000
      2     -11.2179      2.00000
      3     -11.2164      2.00000
      4     -11.2063      2.00000
      5     -11.1779      2.00000
      6      -6.6123      2.00000
      7      -3.0954      2.00000
      8       0.7982      2.00000
      9       0.8338      2.00000
     10       5.3640      0.00000
     11       5.4885      0.00000
     12      12.5398      0.00000
     13      12.6013      0.00000
     14      14.0346      0.00000
     15      15.5877      0.00000
     16      16.5292      0.00000

 k-point   173 :       0.5000    0.0603    0.5603
  band No.  band energies     occupation 
      1     -11.3475      2.00000
      2     -11.2174      2.00000
      3     -11.2162      2.00000
      4     -11.2067      2.00000
      5     -11.1777      2.00000
      6      -6.6141      2.00000
      7      -3.1015      2.00000
      8       0.8335      2.00000
      9       0.8613      2.00000
     10       5.2866      0.00000
     11       5.4103      0.00000
     12      12.6897      0.00000
     13      12.7348      0.00000
     14      14.0280      0.00000
     15      15.6477      0.00000
     16      16.5327      0.00000

 k-point   174 :       0.5000    0.0517    0.5517
  band No.  band energies     occupation 
      1     -11.3479      2.00000
      2     -11.2169      2.00000
      3     -11.2160      2.00000
      4     -11.2071      2.00000
      5     -11.1775      2.00000
      6      -6.6158      2.00000
      7      -3.1068      2.00000
      8       0.8655      2.00000
      9       0.8863      2.00000
     10       5.2182      0.00000
     11       5.3410      0.00000
     12      12.8253      0.00000
     13      12.8563      0.00000
     14      14.0215      0.00000
     15      15.7186      0.00000
     16      16.5303      0.00000

 k-point   175 :       0.5000    0.0431    0.5431
  band No.  band energies     occupation 
      1     -11.3482      2.00000
      2     -11.2164      2.00000
      3     -11.2159      2.00000
      4     -11.2075      2.00000
      5     -11.1773      2.00000
      6      -6.6172      2.00000
      7      -3.1114      2.00000
      8       0.8937      2.00000
      9       0.9084      2.00000
     10       5.1595      0.00000
     11       5.2813      0.00000
     12      12.9444      0.00000
     13      12.9641      0.00000
     14      14.0153      0.00000
     15      15.8017      0.00000
     16      16.5166      0.00000

 k-point   176 :       0.5000    0.0345    0.5345
  band No.  band energies     occupation 
      1     -11.3485      2.00000
      2     -11.2161      2.00000
      3     -11.2157      2.00000
      4     -11.2078      2.00000
      5     -11.1772      2.00000
      6      -6.6183      2.00000
      7      -3.1153      2.00000
      8       0.9175      2.00000
      9       0.9271      2.00000
     10       5.1107      0.00000
     11       5.2316      0.00000
     12      13.0449      0.00000
     13      13.0562      0.00000
     14      14.0094      0.00000
     15      15.8965      0.00000
     16      16.5337      0.00000

 k-point   177 :       0.5000    0.0259    0.5259
  band No.  band energies     occupation 
      1     -11.3487      2.00000
      2     -11.2158      2.00000
      3     -11.2156      2.00000
      4     -11.2080      2.00000
      5     -11.1771      2.00000
      6      -6.6193      2.00000
      7      -3.1183      2.00000
      8       0.9367      2.00000
      9       0.9421      2.00000
     10       5.0724      0.00000
     11       5.1924      0.00000
     12      13.1250      0.00000
     13      13.1306      0.00000
     14      14.0043      0.00000
     15      16.0029      0.00000
     16      16.5268      0.00000

 k-point   178 :       0.5000    0.0172    0.5172
  band No.  band energies     occupation 
      1     -11.3488      2.00000
      2     -11.2156      2.00000
      3     -11.2155      2.00000
      4     -11.2082      2.00000
      5     -11.1770      2.00000
      6      -6.6199      2.00000
      7      -3.1204      2.00000
      8       0.9506      2.00000
      9       0.9530      2.00000
     10       5.0447      0.00000
     11       5.1641      0.00000
     12      13.1833      0.00000
     13      13.1855      0.00000
     14      14.0001      0.00000
     15      16.1135      0.00000
     16      16.5225      0.00000

 k-point   179 :       0.5000    0.0086    0.5086
  band No.  band energies     occupation 
      1     -11.3489      2.00000
      2     -11.2155      2.00000
      3     -11.2154      2.00000
      4     -11.2083      2.00000
      5     -11.1770      2.00000
      6      -6.6203      2.00000
      7      -3.1218      2.00000
      8       0.9591      2.00000
      9       0.9597      2.00000
     10       5.0281      0.00000
     11       5.1470      0.00000
     12      13.2186      0.00000
     13      13.2191      0.00000
     14      13.9974      0.00000
     15      16.2146      0.00000
     16      16.5304      0.00000

 k-point   180 :       0.5000    0.0000    0.5000
  band No.  band energies     occupation 
      1     -11.3489      2.00000
      2     -11.2154      2.00000
      3     -11.2154      2.00000
      4     -11.2083      2.00000
      5     -11.1770      2.00000
      6      -6.6205      2.00000
      7      -3.1222      2.00000
      8       0.9620      2.00000
      9       0.9620      2.00000
     10       5.0225      0.00000
     11       5.1413      0.00000
     12      13.2305      0.00000
     13      13.2305      0.00000
     14      13.9965      0.00000
     15      16.2657      0.00000
     16      16.5612      0.00000


--------------------------------------------------------------------------------------------------------


 soft charge-density along one line, spin component           1
         0         1         2         3         4         5         6         7         8         9
 total charge-density along one line
 
 pseudopotential strength for first ion, spin component:           1
-14.357  -0.000  -0.000  -0.000  -0.000   2.241  -0.000   0.000
 -0.000 -14.357   0.000  -0.000  -0.000  -0.000   2.241  -0.000
 -0.000   0.000 -14.355   0.000   0.000   0.000  -0.000   2.240
 -0.000  -0.000   0.000 -14.357   0.000  -0.000  -0.000  -0.000
 -0.000  -0.000   0.000   0.000 -14.355   0.000   0.000  -0.000
  2.241  -0.000   0.000  -0.000   0.000   3.890   0.000  -0.000
 -0.000   2.241  -0.000  -0.000   0.000   0.000   3.890   0.000
  0.000  -0.000   2.240  -0.000  -0.000  -0.000   0.000   3.889
 -0.000  -0.000  -0.000   2.241  -0.000   0.000   0.000   0.000
  0.000   0.000  -0.000  -0.000   2.240   0.000  -0.000   0.000
  0.000   0.000   0.000   0.000  -0.000  -0.000  -0.000  -0.000
 -0.000  -0.000  -0.000  -0.000   0.000   0.000   0.000   0.000
  0.000   0.000   0.000   0.000   0.000  -0.000  -0.000  -0.000
  0.000   0.000  -0.000   0.000  -0.000  -0.001  -0.000   0.000
  0.000   0.000   0.000   0.000  -0.000  -0.000  -0.001  -0.000
 -0.000  -0.000  -0.000  -0.001  -0.000   0.000   0.000   0.000
 -0.001  -0.000   0.000  -0.000   0.000   0.002   0.000  -0.000
 -0.000  -0.001  -0.000  -0.000   0.000   0.000   0.002   0.000
 total augmentation occupancy for first ion, spin component:           1
  2.000   0.000   0.000   0.000   0.000   0.000   0.000   0.000   0.000   0.000   0.000   0.000   0.000   0.000   0.000   0.000
  0.000   2.000   0.000   0.000   0.000   0.000   0.000   0.000   0.000   0.000   0.000   0.000   0.000   0.000   0.000   0.000
  0.000   0.000   2.000   0.000   0.000   0.000   0.000   0.000   0.000   0.000   0.000   0.000   0.000   0.000   0.000   0.000
  0.000   0.000   0.000   2.000   0.000   0.000   0.000   0.000   0.000   0.000   0.000   0.000   0.000   0.000   0.000   0.000
  0.000   0.000   0.000   0.000   2.000   0.000   0.000   0.000   0.000   0.000   0.000   0.000   0.000   0.000   0.000   0.000
  0.000   0.000   0.000   0.000   0.000   0.000   0.000   0.000   0.000   0.000   0.000   0.000   0.000   0.000   0.000   0.000
  0.000   0.000   0.000   0.000   0.000   0.000   0.000   0.000   0.000   0.000   0.000   0.000   0.000   0.000   0.000   0.000
  0.000   0.000   0.000   0.000   0.000   0.000   0.000   0.000   0.000   0.000   0.000   0.000   0.000   0.000   0.000   0.000
  0.000   0.000   0.000   0.000   0.000   0.000   0.000   0.000   0.000   0.000   0.000   0.000   0.000   0.000   0.000   0.000
  0.000   0.000   0.000   0.000   0.000   0.000   0.000   0.000   0.000   0.000   0.000   0.000   0.000   0.000   0.000   0.000
  0.000   0.000   0.000   0.000   0.000   0.000   0.000   0.000   0.000   0.000   2.000   0.000   0.000   0.000   0.000   0.000
  0.000   0.000   0.000   0.000   0.000   0.000   0.000   0.000   0.000   0.000   0.000   0.000   0.000   0.000   0.000   0.000
  0.000   0.000   0.000   0.000   0.000   0.000   0.000   0.000   0.000   0.000   0.000   0.000   0.333   0.000   0.000   0.000
  0.000   0.000   0.000   0.000   0.000   0.000   0.000   0.000   0.000   0.000   0.000   0.000   0.000   0.333   0.000   0.000
  0.000   0.000   0.000   0.000   0.000   0.000   0.000   0.000   0.000   0.000   0.000   0.000   0.000   0.000   0.333   0.000
  0.000   0.000   0.000   0.000   0.000   0.000   0.000   0.000   0.000   0.000   0.000   0.000   0.000   0.000   0.000   0.000
  0.000   0.000   0.000   0.000   0.000   0.000   0.000   0.000   0.000   0.000   0.000   0.000   0.000   0.000   0.000   0.000
  0.000   0.000   0.000   0.000   0.000   0.000   0.000   0.000   0.000   0.000   0.000   0.000   0.000   0.000   0.000   0.000


------------------------ aborting loop because EDIFF is reached ----------------------------------------


    CHARGE:  cpu time      0.0510: real time      0.0513
    FORLOC:  cpu time      0.0004: real time      0.0004
    FORNL :  cpu time      0.1021: real time      0.1121
    STRESS:  cpu time      0.3836: real time      0.4100
    FORCOR:  cpu time      0.0063: real time      0.0064
    FORHAR:  cpu time      0.0016: real time      0.0016
    OFIELD:  cpu time      0.0000: real time      0.0000

  FORCE on cell =-STRESS in cart. coord.  units (eV):
  Direction    XX          YY          ZZ          XY          YZ          ZX
  --------------------------------------------------------------------------------------
  Alpha Z    57.30385    57.30385    57.30385
  Ewald    -414.74884  -414.74884  -414.74884    -0.00000     0.00000    -0.00000
  Hartree   244.60813   244.60813   244.60813     0.00000     0.00000     0.00000
  E(xc)     -97.39655   -97.39655   -97.39655     0.00001     0.00001     0.00001
  Local     -68.59845   -68.59845   -68.59845     0.00012     0.00012     0.00012
  n-local    48.46968    44.46787    47.57671    -1.37703    -0.56970    -0.92492
  augment   121.32061   121.32061   121.32061    -0.00009    -0.00009    -0.00009
  Kinetic   114.61434   108.58536   114.80051    -2.39821    -1.40992    -2.17541
  Fock        0.00000     0.00000     0.00000     0.00000     0.00000     0.00000
  -------------------------------------------------------------------------------------
  Total       1.99358     1.99358     1.99358     0.00000    -0.00000     0.00000
  in kB      67.19839    67.19839    67.19839     0.00000    -0.00000     0.00000
  external pressure =       67.20 kB  Pullay stress =        0.00 kB


 VOLUME and BASIS-vectors are now :
 -----------------------------------------------------------------------------
  energy-cutoff  :      500.00
  volume of cell :       47.53
      direct lattice vectors                 reciprocal lattice vectors
     0.000000000  2.875091076  2.875091076    -0.173907534  0.173907534  0.173907534
     2.875091076  0.000000000  2.875091076     0.173907534 -0.173907534  0.173907534
     2.875091076  2.875091076  0.000000000     0.173907534  0.173907534 -0.173907534

  length of vectors
     4.065992793  4.065992793  4.065992793     0.301216685  0.301216685  0.301216685


 FORCES acting on ions
    electron-ion (+dipol)            ewald-force                    non-local-force                 convergence-correction
 -----------------------------------------------------------------------------------------------
   0.223E-05 0.223E-05 0.220E-05   -.102E-13 -.884E-15 0.567E-13   -.123E-15 -.192E-15 -.168E-15   0.119E-07 0.119E-07 0.119E-07
   0.770E-07 0.770E-07 0.919E-07   0.957E-14 0.291E-14 -.534E-13   0.109E-15 0.539E-16 0.112E-15   -.101E-08 -.101E-08 -.101E-08
 -----------------------------------------------------------------------------------------------
   0.230E-05 0.230E-05 0.229E-05   -.618E-15 0.203E-14 0.330E-14   -.135E-16 -.138E-15 -.564E-16   0.109E-07 0.109E-07 0.109E-07
 
 
 POSITION                                       TOTAL-FORCE (eV/Angst)
 -----------------------------------------------------------------------------------
      0.00000      0.00000      0.00000         0.000000     -0.000000     -0.000000
      1.43755      1.43755      1.43755        -0.000000      0.000000      0.000000
 -----------------------------------------------------------------------------------
    total drift:                                0.000002      0.000002      0.000002


--------------------------------------------------------------------------------------------------------



  FREE ENERGIE OF THE ION-ELECTRON SYSTEM (eV)
  ---------------------------------------------------
  free  energy   TOTEN  =        -6.81741157 eV

  energy  without entropy=       -6.81716554  energy(sigma->0) =       -6.81728856
 


--------------------------------------------------------------------------------------------------------


    POTLOK:  cpu time      0.0079: real time      0.0079


--------------------------------------------------------------------------------------------------------


     LOOP+:  cpu time     10.3340: real time     10.7025
    4ORBIT:  cpu time      0.0000: real time      0.0000

 total amount of memory used by VASP MPI-rank0    51840. kBytes
=======================================================================

   base      :      30000. kBytes
   nonl-proj :      16184. kBytes
   fftplans  :        700. kBytes
   grid      :       1117. kBytes
   one-center:         15. kBytes
   wavefun   :       3824. kBytes
 
  
  
 General timing and accounting informations for this job:
 ========================================================
  
                  Total CPU time used (sec):       10.938
                            User time (sec):        8.057
                          System time (sec):        2.881
                         Elapsed time (sec):       11.561
  
                   Maximum memory used (kb):      153504.
                   Average memory used (kb):          N/A
  
                          Minor page faults:        17970
                          Major page faults:          834
                 Voluntary context switches:           76
